n -t * -s 6  -x 323 -y 432 -Z 0 -z 30  -v circle -c black
n -t * -s 5  -x 25 -y 35 -Z 0 -z 30  -v circle -c black
n -t * -s 4  -x 12 -y 22 -Z 0 -z 30  -v circle -c black
n -t * -s 3  -x 333 -y 111 -Z 0 -z 30  -v circle -c black
n -t * -s 2  -x 435 -y 264 -Z 0 -z 30  -v circle -c black
n -t * -s 1  -x 166 -y 211 -Z 0 -z 30  -v circle -c black
n -t * -s 0  -x 123 -y 232 -Z 0 -z 30  -v circle -c black
V -t * -v 1.0a5 -a 0
W -t * -x 500 -y 500
A -t * -n 1 -p 0 -o 0x7fffffff -c 30 -a 1
A -t * -h 1 -m 1073741823 -s 0
+ -t 2.000000000 -s 0 -d -1 -p cbr -e 1000 -c 2 -a 0 -i 0 -k AGT 
- -t 2.000000000 -s 0 -d -1 -p cbr -e 1000 -c 2 -a 0 -i 0 -k AGT
h -t 2.000000000 -s 0 -d -1 -p cbr -e 1000 -c 2 -a 0 -i 0 -k AGT
+ -t 2.000000000 -s 0 -d -1 -p cbr -e 24 -c 2 -a 0 -i 2 -k AGT 
- -t 2.000000000 -s 0 -d -1 -p cbr -e 24 -c 2 -a 0 -i 2 -k AGT
h -t 2.000000000 -s 0 -d -1 -p cbr -e 24 -c 2 -a 0 -i 2 -k AGT
+ -t 2.005031958 -s 0 -d -1 -p DSR -e 32 -c 2 -a 0 -i 1 -k RTR 
- -t 2.005031958 -s 0 -d -1 -p DSR -e 32 -c 2 -a 0 -i 1 -k RTR
h -t 2.005031958 -s 0 -d -1 -p DSR -e 32 -c 2 -a 0 -i 1 -k RTR
+ -t 2.064820896 -s 0 -d -1 -p DSR -e 32 -c 2 -a 0 -i 6 -k RTR 
- -t 2.064820896 -s 0 -d -1 -p DSR -e 32 -c 2 -a 0 -i 6 -k RTR
h -t 2.064820896 -s 0 -d -1 -p DSR -e 32 -c 2 -a 0 -i 6 -k RTR
+ -t 2.066513086 -s 4 -d -1 -p DSR -e 48 -c 2 -a 0 -i 6 -k RTR 
- -t 2.066513086 -s 4 -d -1 -p DSR -e 48 -c 2 -a 0 -i 6 -k RTR
h -t 2.066513086 -s 4 -d -1 -p DSR -e 48 -c 2 -a 0 -i 6 -k RTR
+ -t 2.068747568 -s 5 -d -1 -p DSR -e 48 -c 2 -a 0 -i 6 -k RTR 
- -t 2.068747568 -s 5 -d -1 -p DSR -e 48 -c 2 -a 0 -i 6 -k RTR
h -t 2.068747568 -s 5 -d -1 -p DSR -e 48 -c 2 -a 0 -i 6 -k RTR
+ -t 2.070280415 -s 1 -d -1 -p DSR -e 48 -c 2 -a 0 -i 6 -k RTR 
- -t 2.070280415 -s 1 -d -1 -p DSR -e 48 -c 2 -a 0 -i 6 -k RTR
h -t 2.070280415 -s 1 -d -1 -p DSR -e 48 -c 2 -a 0 -i 6 -k RTR
+ -t 2.075646211 -s 3 -d -1 -p DSR -e 48 -c 2 -a 0 -i 6 -k RTR 
- -t 2.075646211 -s 3 -d -1 -p DSR -e 48 -c 2 -a 0 -i 6 -k RTR
h -t 2.075646211 -s 3 -d -1 -p DSR -e 48 -c 2 -a 0 -i 6 -k RTR
+ -t 2.086963356 -s 2 -d -1 -p DSR -e 68 -c 2 -a 0 -i 6 -k RTR 
- -t 2.086963356 -s 2 -d -1 -p DSR -e 68 -c 2 -a 0 -i 6 -k RTR
h -t 2.086963356 -s 2 -d -1 -p DSR -e 68 -c 2 -a 0 -i 6 -k RTR
+ -t 2.095924383 -s 6 -d 2 -p DSR -e 60 -c 2 -a 0 -i 8 -k RTR 
- -t 2.095924383 -s 6 -d 2 -p DSR -e 60 -c 2 -a 0 -i 8 -k RTR
h -t 2.095924383 -s 6 -d 2 -p DSR -e 60 -c 2 -a 0 -i 8 -k RTR
+ -t 2.101260094 -s 2 -d 3 -p DSR -e 60 -c 2 -a 0 -i 8 -k RTR 
- -t 2.101260094 -s 2 -d 3 -p DSR -e 60 -c 2 -a 0 -i 8 -k RTR
h -t 2.101260094 -s 2 -d 3 -p DSR -e 60 -c 2 -a 0 -i 8 -k RTR
+ -t 2.106779385 -s 3 -d 0 -p DSR -e 60 -c 2 -a 0 -i 8 -k RTR 
- -t 2.106779385 -s 3 -d 0 -p DSR -e 60 -c 2 -a 0 -i 8 -k RTR
h -t 2.106779385 -s 3 -d 0 -p DSR -e 60 -c 2 -a 0 -i 8 -k RTR
+ -t 2.111840040 -s 0 -d 3 -p cbr -e 1044 -c 2 -a 0 -i 0 -k RTR 
- -t 2.111840040 -s 0 -d 3 -p cbr -e 1044 -c 2 -a 0 -i 0 -k RTR
h -t 2.111840040 -s 0 -d 3 -p cbr -e 1044 -c 2 -a 0 -i 0 -k RTR
+ -t 2.122098464 -s 3 -d 2 -p cbr -e 1044 -c 2 -a 0 -i 0 -k RTR 
- -t 2.122098464 -s 3 -d 2 -p cbr -e 1044 -c 2 -a 0 -i 0 -k RTR
h -t 2.122098464 -s 3 -d 2 -p cbr -e 1044 -c 2 -a 0 -i 0 -k RTR
+ -t 2.131956302 -s 2 -d 6 -p cbr -e 1044 -c 2 -a 0 -i 0 -k RTR 
- -t 2.131956302 -s 2 -d 6 -p cbr -e 1044 -c 2 -a 0 -i 0 -k RTR
h -t 2.131956302 -s 2 -d 6 -p cbr -e 1044 -c 2 -a 0 -i 0 -k RTR
+ -t 2.141840040 -s 0 -d 3 -p cbr -e 68 -c 2 -a 0 -i 2 -k RTR 
- -t 2.141840040 -s 0 -d 3 -p cbr -e 68 -c 2 -a 0 -i 2 -k RTR
h -t 2.141840040 -s 0 -d 3 -p cbr -e 68 -c 2 -a 0 -i 2 -k RTR
r -t 2.142254322 -s 6 -d 6 -p cbr -e 1000 -c 2 -a 0 -i 0 -k AGT
+ -t 2.144689688 -s 3 -d 2 -p cbr -e 68 -c 2 -a 0 -i 2 -k RTR 
- -t 2.144689688 -s 3 -d 2 -p cbr -e 68 -c 2 -a 0 -i 2 -k RTR
h -t 2.144689688 -s 3 -d 2 -p cbr -e 68 -c 2 -a 0 -i 2 -k RTR
+ -t 2.147299527 -s 2 -d 6 -p cbr -e 68 -c 2 -a 0 -i 2 -k RTR 
- -t 2.147299527 -s 2 -d 6 -p cbr -e 68 -c 2 -a 0 -i 2 -k RTR
h -t 2.147299527 -s 2 -d 6 -p cbr -e 68 -c 2 -a 0 -i 2 -k RTR
r -t 2.149509546 -s 6 -d 6 -p cbr -e 24 -c 2 -a 0 -i 2 -k AGT
+ -t 2.200000000 -s 0 -d -1 -p cbr -e 1000 -c 2 -a 0 -i 11 -k AGT 
- -t 2.200000000 -s 0 -d -1 -p cbr -e 1000 -c 2 -a 0 -i 11 -k AGT
h -t 2.200000000 -s 0 -d -1 -p cbr -e 1000 -c 2 -a 0 -i 11 -k AGT
+ -t 2.200000000 -s 0 -d -1 -p cbr -e 24 -c 2 -a 0 -i 12 -k AGT 
- -t 2.200000000 -s 0 -d -1 -p cbr -e 24 -c 2 -a 0 -i 12 -k AGT
h -t 2.200000000 -s 0 -d -1 -p cbr -e 24 -c 2 -a 0 -i 12 -k AGT
+ -t 2.200000000 -s 0 -d 3 -p cbr -e 1044 -c 2 -a 0 -i 11 -k RTR 
- -t 2.200000000 -s 0 -d 3 -p cbr -e 1044 -c 2 -a 0 -i 11 -k RTR
h -t 2.200000000 -s 0 -d 3 -p cbr -e 1044 -c 2 -a 0 -i 11 -k RTR
+ -t 2.200000000 -s 0 -d 3 -p cbr -e 44 -c 2 -a 0 -i 12 -k RTR 
- -t 2.200000000 -s 0 -d 3 -p cbr -e 44 -c 2 -a 0 -i 12 -k RTR
h -t 2.200000000 -s 0 -d 3 -p cbr -e 44 -c 2 -a 0 -i 12 -k RTR
+ -t 2.209694424 -s 3 -d 2 -p cbr -e 1044 -c 2 -a 0 -i 11 -k RTR 
- -t 2.209694424 -s 3 -d 2 -p cbr -e 1044 -c 2 -a 0 -i 11 -k RTR
h -t 2.209694424 -s 3 -d 2 -p cbr -e 1044 -c 2 -a 0 -i 11 -k RTR
+ -t 2.219552262 -s 2 -d 6 -p cbr -e 1044 -c 2 -a 0 -i 11 -k RTR 
- -t 2.219552262 -s 2 -d 6 -p cbr -e 1044 -c 2 -a 0 -i 11 -k RTR
h -t 2.219552262 -s 2 -d 6 -p cbr -e 1044 -c 2 -a 0 -i 11 -k RTR
+ -t 2.221935732 -s 3 -d 2 -p cbr -e 44 -c 2 -a 0 -i 12 -k RTR 
- -t 2.221935732 -s 3 -d 2 -p cbr -e 44 -c 2 -a 0 -i 12 -k RTR
h -t 2.221935732 -s 3 -d 2 -p cbr -e 44 -c 2 -a 0 -i 12 -k RTR
+ -t 2.223813570 -s 2 -d 6 -p cbr -e 44 -c 2 -a 0 -i 12 -k RTR 
- -t 2.223813570 -s 2 -d 6 -p cbr -e 44 -c 2 -a 0 -i 12 -k RTR
h -t 2.223813570 -s 2 -d 6 -p cbr -e 44 -c 2 -a 0 -i 12 -k RTR
r -t 2.233711590 -s 6 -d 6 -p cbr -e 1000 -c 2 -a 0 -i 11 -k AGT
r -t 2.235810282 -s 6 -d 6 -p cbr -e 24 -c 2 -a 0 -i 12 -k AGT
+ -t 2.400000000 -s 0 -d -1 -p cbr -e 1000 -c 2 -a 0 -i 13 -k AGT 
- -t 2.400000000 -s 0 -d -1 -p cbr -e 1000 -c 2 -a 0 -i 13 -k AGT
h -t 2.400000000 -s 0 -d -1 -p cbr -e 1000 -c 2 -a 0 -i 13 -k AGT
+ -t 2.400000000 -s 0 -d -1 -p cbr -e 24 -c 2 -a 0 -i 14 -k AGT 
- -t 2.400000000 -s 0 -d -1 -p cbr -e 24 -c 2 -a 0 -i 14 -k AGT
h -t 2.400000000 -s 0 -d -1 -p cbr -e 24 -c 2 -a 0 -i 14 -k AGT
+ -t 2.400000000 -s 0 -d 3 -p cbr -e 1020 -c 2 -a 0 -i 13 -k RTR 
- -t 2.400000000 -s 0 -d 3 -p cbr -e 1020 -c 2 -a 0 -i 13 -k RTR
h -t 2.400000000 -s 0 -d 3 -p cbr -e 1020 -c 2 -a 0 -i 13 -k RTR
+ -t 2.400000000 -s 0 -d 3 -p cbr -e 44 -c 2 -a 0 -i 14 -k RTR 
- -t 2.400000000 -s 0 -d 3 -p cbr -e 44 -c 2 -a 0 -i 14 -k RTR
h -t 2.400000000 -s 0 -d 3 -p cbr -e 44 -c 2 -a 0 -i 14 -k RTR
+ -t 2.409642424 -s 3 -d 2 -p cbr -e 1020 -c 2 -a 0 -i 13 -k RTR 
- -t 2.409642424 -s 3 -d 2 -p cbr -e 1020 -c 2 -a 0 -i 13 -k RTR
h -t 2.409642424 -s 3 -d 2 -p cbr -e 1020 -c 2 -a 0 -i 13 -k RTR
+ -t 2.411561655 -s 3 -d 2 -p cbr -e 44 -c 2 -a 0 -i 14 -k RTR 
- -t 2.411561655 -s 3 -d 2 -p cbr -e 44 -c 2 -a 0 -i 14 -k RTR
h -t 2.411561655 -s 3 -d 2 -p cbr -e 44 -c 2 -a 0 -i 14 -k RTR
+ -t 2.421727494 -s 2 -d 6 -p cbr -e 1020 -c 2 -a 0 -i 13 -k RTR 
- -t 2.421727494 -s 2 -d 6 -p cbr -e 1020 -c 2 -a 0 -i 13 -k RTR
h -t 2.421727494 -s 2 -d 6 -p cbr -e 1020 -c 2 -a 0 -i 13 -k RTR
r -t 2.431433513 -s 6 -d 6 -p cbr -e 1000 -c 2 -a 0 -i 13 -k AGT
+ -t 2.434076422 -s 2 -d 6 -p cbr -e 44 -c 2 -a 0 -i 14 -k RTR 
- -t 2.434076422 -s 2 -d 6 -p cbr -e 44 -c 2 -a 0 -i 14 -k RTR
h -t 2.434076422 -s 2 -d 6 -p cbr -e 44 -c 2 -a 0 -i 14 -k RTR
r -t 2.436034442 -s 6 -d 6 -p cbr -e 24 -c 2 -a 0 -i 14 -k AGT
+ -t 2.600000000 -s 0 -d -1 -p cbr -e 1000 -c 2 -a 0 -i 15 -k AGT 
- -t 2.600000000 -s 0 -d -1 -p cbr -e 1000 -c 2 -a 0 -i 15 -k AGT
h -t 2.600000000 -s 0 -d -1 -p cbr -e 1000 -c 2 -a 0 -i 15 -k AGT
+ -t 2.600000000 -s 0 -d -1 -p cbr -e 24 -c 2 -a 0 -i 16 -k AGT 
- -t 2.600000000 -s 0 -d -1 -p cbr -e 24 -c 2 -a 0 -i 16 -k AGT
h -t 2.600000000 -s 0 -d -1 -p cbr -e 24 -c 2 -a 0 -i 16 -k AGT
+ -t 2.600000000 -s 0 -d 3 -p cbr -e 1020 -c 2 -a 0 -i 15 -k RTR 
- -t 2.600000000 -s 0 -d 3 -p cbr -e 1020 -c 2 -a 0 -i 15 -k RTR
h -t 2.600000000 -s 0 -d 3 -p cbr -e 1020 -c 2 -a 0 -i 15 -k RTR
+ -t 2.600000000 -s 0 -d 3 -p cbr -e 44 -c 2 -a 0 -i 16 -k RTR 
- -t 2.600000000 -s 0 -d 3 -p cbr -e 44 -c 2 -a 0 -i 16 -k RTR
h -t 2.600000000 -s 0 -d 3 -p cbr -e 44 -c 2 -a 0 -i 16 -k RTR
+ -t 2.609682424 -s 3 -d 2 -p cbr -e 1020 -c 2 -a 0 -i 15 -k RTR 
- -t 2.609682424 -s 3 -d 2 -p cbr -e 1020 -c 2 -a 0 -i 15 -k RTR
h -t 2.609682424 -s 3 -d 2 -p cbr -e 1020 -c 2 -a 0 -i 15 -k RTR
+ -t 2.619628262 -s 2 -d 6 -p cbr -e 1020 -c 2 -a 0 -i 15 -k RTR 
- -t 2.619628262 -s 2 -d 6 -p cbr -e 1020 -c 2 -a 0 -i 15 -k RTR
h -t 2.619628262 -s 2 -d 6 -p cbr -e 1020 -c 2 -a 0 -i 15 -k RTR
+ -t 2.621951732 -s 3 -d 2 -p cbr -e 44 -c 2 -a 0 -i 16 -k RTR 
- -t 2.621951732 -s 3 -d 2 -p cbr -e 44 -c 2 -a 0 -i 16 -k RTR
h -t 2.621951732 -s 3 -d 2 -p cbr -e 44 -c 2 -a 0 -i 16 -k RTR
r -t 2.631687988 -s 6 -d 6 -p cbr -e 1000 -c 2 -a 0 -i 15 -k AGT
+ -t 2.633990898 -s 2 -d 6 -p cbr -e 44 -c 2 -a 0 -i 16 -k RTR 
- -t 2.633990898 -s 2 -d 6 -p cbr -e 44 -c 2 -a 0 -i 16 -k RTR
h -t 2.633990898 -s 2 -d 6 -p cbr -e 44 -c 2 -a 0 -i 16 -k RTR
r -t 2.635928917 -s 6 -d 6 -p cbr -e 24 -c 2 -a 0 -i 16 -k AGT
+ -t 2.800000000 -s 0 -d -1 -p cbr -e 1000 -c 2 -a 0 -i 17 -k AGT 
- -t 2.800000000 -s 0 -d -1 -p cbr -e 1000 -c 2 -a 0 -i 17 -k AGT
h -t 2.800000000 -s 0 -d -1 -p cbr -e 1000 -c 2 -a 0 -i 17 -k AGT
+ -t 2.800000000 -s 0 -d -1 -p cbr -e 24 -c 2 -a 0 -i 18 -k AGT 
- -t 2.800000000 -s 0 -d -1 -p cbr -e 24 -c 2 -a 0 -i 18 -k AGT
h -t 2.800000000 -s 0 -d -1 -p cbr -e 24 -c 2 -a 0 -i 18 -k AGT
+ -t 2.800000000 -s 0 -d 3 -p cbr -e 1020 -c 2 -a 0 -i 17 -k RTR 
- -t 2.800000000 -s 0 -d 3 -p cbr -e 1020 -c 2 -a 0 -i 17 -k RTR
h -t 2.800000000 -s 0 -d 3 -p cbr -e 1020 -c 2 -a 0 -i 17 -k RTR
+ -t 2.800000000 -s 0 -d 3 -p cbr -e 44 -c 2 -a 0 -i 18 -k RTR 
- -t 2.800000000 -s 0 -d 3 -p cbr -e 44 -c 2 -a 0 -i 18 -k RTR
h -t 2.800000000 -s 0 -d 3 -p cbr -e 44 -c 2 -a 0 -i 18 -k RTR
+ -t 2.809622424 -s 3 -d 2 -p cbr -e 1020 -c 2 -a 0 -i 17 -k RTR 
- -t 2.809622424 -s 3 -d 2 -p cbr -e 1020 -c 2 -a 0 -i 17 -k RTR
h -t 2.809622424 -s 3 -d 2 -p cbr -e 1020 -c 2 -a 0 -i 17 -k RTR
+ -t 2.819408262 -s 2 -d 6 -p cbr -e 1020 -c 2 -a 0 -i 17 -k RTR 
- -t 2.819408262 -s 2 -d 6 -p cbr -e 1020 -c 2 -a 0 -i 17 -k RTR
h -t 2.819408262 -s 2 -d 6 -p cbr -e 1020 -c 2 -a 0 -i 17 -k RTR
r -t 2.829394282 -s 6 -d 6 -p cbr -e 1000 -c 2 -a 0 -i 17 -k AGT
+ -t 2.832037648 -s 3 -d 2 -p cbr -e 44 -c 2 -a 0 -i 18 -k RTR 
- -t 2.832037648 -s 3 -d 2 -p cbr -e 44 -c 2 -a 0 -i 18 -k RTR
h -t 2.832037648 -s 3 -d 2 -p cbr -e 44 -c 2 -a 0 -i 18 -k RTR
+ -t 2.834055487 -s 2 -d 6 -p cbr -e 44 -c 2 -a 0 -i 18 -k RTR 
- -t 2.834055487 -s 2 -d 6 -p cbr -e 44 -c 2 -a 0 -i 18 -k RTR
h -t 2.834055487 -s 2 -d 6 -p cbr -e 44 -c 2 -a 0 -i 18 -k RTR
r -t 2.836313506 -s 6 -d 6 -p cbr -e 24 -c 2 -a 0 -i 18 -k AGT
+ -t 3.000000000 -s 0 -d -1 -p cbr -e 1000 -c 2 -a 0 -i 19 -k AGT 
- -t 3.000000000 -s 0 -d -1 -p cbr -e 1000 -c 2 -a 0 -i 19 -k AGT
h -t 3.000000000 -s 0 -d -1 -p cbr -e 1000 -c 2 -a 0 -i 19 -k AGT
+ -t 3.000000000 -s 0 -d -1 -p cbr -e 24 -c 2 -a 0 -i 20 -k AGT 
- -t 3.000000000 -s 0 -d -1 -p cbr -e 24 -c 2 -a 0 -i 20 -k AGT
h -t 3.000000000 -s 0 -d -1 -p cbr -e 24 -c 2 -a 0 -i 20 -k AGT
+ -t 3.000000000 -s 0 -d 3 -p cbr -e 1020 -c 2 -a 0 -i 19 -k RTR 
- -t 3.000000000 -s 0 -d 3 -p cbr -e 1020 -c 2 -a 0 -i 19 -k RTR
h -t 3.000000000 -s 0 -d 3 -p cbr -e 1020 -c 2 -a 0 -i 19 -k RTR
+ -t 3.000000000 -s 0 -d 3 -p cbr -e 44 -c 2 -a 0 -i 20 -k RTR 
- -t 3.000000000 -s 0 -d 3 -p cbr -e 44 -c 2 -a 0 -i 20 -k RTR
h -t 3.000000000 -s 0 -d 3 -p cbr -e 44 -c 2 -a 0 -i 20 -k RTR
+ -t 3.009742424 -s 3 -d 2 -p cbr -e 1020 -c 2 -a 0 -i 19 -k RTR 
- -t 3.009742424 -s 3 -d 2 -p cbr -e 1020 -c 2 -a 0 -i 19 -k RTR
h -t 3.009742424 -s 3 -d 2 -p cbr -e 1020 -c 2 -a 0 -i 19 -k RTR
+ -t 3.019868262 -s 2 -d 6 -p cbr -e 1020 -c 2 -a 0 -i 19 -k RTR 
- -t 3.019868262 -s 2 -d 6 -p cbr -e 1020 -c 2 -a 0 -i 19 -k RTR
h -t 3.019868262 -s 2 -d 6 -p cbr -e 1020 -c 2 -a 0 -i 19 -k RTR
r -t 3.029554282 -s 6 -d 6 -p cbr -e 1000 -c 2 -a 0 -i 19 -k AGT
+ -t 3.031817648 -s 3 -d 2 -p cbr -e 44 -c 2 -a 0 -i 20 -k RTR 
- -t 3.031817648 -s 3 -d 2 -p cbr -e 44 -c 2 -a 0 -i 20 -k RTR
h -t 3.031817648 -s 3 -d 2 -p cbr -e 44 -c 2 -a 0 -i 20 -k RTR
+ -t 3.033735487 -s 2 -d 6 -p cbr -e 44 -c 2 -a 0 -i 20 -k RTR 
- -t 3.033735487 -s 2 -d 6 -p cbr -e 44 -c 2 -a 0 -i 20 -k RTR
h -t 3.033735487 -s 2 -d 6 -p cbr -e 44 -c 2 -a 0 -i 20 -k RTR
r -t 3.036193506 -s 6 -d 6 -p cbr -e 24 -c 2 -a 0 -i 20 -k AGT
+ -t 3.200000000 -s 0 -d -1 -p cbr -e 1000 -c 2 -a 0 -i 21 -k AGT 
- -t 3.200000000 -s 0 -d -1 -p cbr -e 1000 -c 2 -a 0 -i 21 -k AGT
h -t 3.200000000 -s 0 -d -1 -p cbr -e 1000 -c 2 -a 0 -i 21 -k AGT
+ -t 3.200000000 -s 0 -d -1 -p cbr -e 24 -c 2 -a 0 -i 22 -k AGT 
- -t 3.200000000 -s 0 -d -1 -p cbr -e 24 -c 2 -a 0 -i 22 -k AGT
h -t 3.200000000 -s 0 -d -1 -p cbr -e 24 -c 2 -a 0 -i 22 -k AGT
+ -t 3.200000000 -s 0 -d 3 -p cbr -e 1020 -c 2 -a 0 -i 21 -k RTR 
- -t 3.200000000 -s 0 -d 3 -p cbr -e 1020 -c 2 -a 0 -i 21 -k RTR
h -t 3.200000000 -s 0 -d 3 -p cbr -e 1020 -c 2 -a 0 -i 21 -k RTR
+ -t 3.200000000 -s 0 -d 3 -p cbr -e 44 -c 2 -a 0 -i 22 -k RTR 
- -t 3.200000000 -s 0 -d 3 -p cbr -e 44 -c 2 -a 0 -i 22 -k RTR
h -t 3.200000000 -s 0 -d 3 -p cbr -e 44 -c 2 -a 0 -i 22 -k RTR
+ -t 3.209722424 -s 3 -d 2 -p cbr -e 1020 -c 2 -a 0 -i 21 -k RTR 
- -t 3.209722424 -s 3 -d 2 -p cbr -e 1020 -c 2 -a 0 -i 21 -k RTR
h -t 3.209722424 -s 3 -d 2 -p cbr -e 1020 -c 2 -a 0 -i 21 -k RTR
+ -t 3.219548262 -s 2 -d 6 -p cbr -e 1020 -c 2 -a 0 -i 21 -k RTR 
- -t 3.219548262 -s 2 -d 6 -p cbr -e 1020 -c 2 -a 0 -i 21 -k RTR
h -t 3.219548262 -s 2 -d 6 -p cbr -e 1020 -c 2 -a 0 -i 21 -k RTR
r -t 3.229694282 -s 6 -d 6 -p cbr -e 1000 -c 2 -a 0 -i 21 -k AGT
+ -t 3.231957648 -s 3 -d 2 -p cbr -e 44 -c 2 -a 0 -i 22 -k RTR 
- -t 3.231957648 -s 3 -d 2 -p cbr -e 44 -c 2 -a 0 -i 22 -k RTR
h -t 3.231957648 -s 3 -d 2 -p cbr -e 44 -c 2 -a 0 -i 22 -k RTR
+ -t 3.233935487 -s 2 -d 6 -p cbr -e 44 -c 2 -a 0 -i 22 -k RTR 
- -t 3.233935487 -s 2 -d 6 -p cbr -e 44 -c 2 -a 0 -i 22 -k RTR
h -t 3.233935487 -s 2 -d 6 -p cbr -e 44 -c 2 -a 0 -i 22 -k RTR
r -t 3.236073506 -s 6 -d 6 -p cbr -e 24 -c 2 -a 0 -i 22 -k AGT
+ -t 3.400000000 -s 0 -d -1 -p cbr -e 1000 -c 2 -a 0 -i 23 -k AGT 
- -t 3.400000000 -s 0 -d -1 -p cbr -e 1000 -c 2 -a 0 -i 23 -k AGT
h -t 3.400000000 -s 0 -d -1 -p cbr -e 1000 -c 2 -a 0 -i 23 -k AGT
+ -t 3.400000000 -s 0 -d -1 -p cbr -e 24 -c 2 -a 0 -i 24 -k AGT 
- -t 3.400000000 -s 0 -d -1 -p cbr -e 24 -c 2 -a 0 -i 24 -k AGT
h -t 3.400000000 -s 0 -d -1 -p cbr -e 24 -c 2 -a 0 -i 24 -k AGT
+ -t 3.400000000 -s 0 -d 3 -p cbr -e 1020 -c 2 -a 0 -i 23 -k RTR 
- -t 3.400000000 -s 0 -d 3 -p cbr -e 1020 -c 2 -a 0 -i 23 -k RTR
h -t 3.400000000 -s 0 -d 3 -p cbr -e 1020 -c 2 -a 0 -i 23 -k RTR
+ -t 3.400000000 -s 0 -d 3 -p cbr -e 44 -c 2 -a 0 -i 24 -k RTR 
- -t 3.400000000 -s 0 -d 3 -p cbr -e 44 -c 2 -a 0 -i 24 -k RTR
h -t 3.400000000 -s 0 -d 3 -p cbr -e 44 -c 2 -a 0 -i 24 -k RTR
+ -t 3.409982424 -s 3 -d 2 -p cbr -e 1020 -c 2 -a 0 -i 23 -k RTR 
- -t 3.409982424 -s 3 -d 2 -p cbr -e 1020 -c 2 -a 0 -i 23 -k RTR
h -t 3.409982424 -s 3 -d 2 -p cbr -e 1020 -c 2 -a 0 -i 23 -k RTR
+ -t 3.419688262 -s 2 -d 6 -p cbr -e 1020 -c 2 -a 0 -i 23 -k RTR 
- -t 3.419688262 -s 2 -d 6 -p cbr -e 1020 -c 2 -a 0 -i 23 -k RTR
h -t 3.419688262 -s 2 -d 6 -p cbr -e 1020 -c 2 -a 0 -i 23 -k RTR
r -t 3.429434282 -s 6 -d 6 -p cbr -e 1000 -c 2 -a 0 -i 23 -k AGT
+ -t 3.431737648 -s 3 -d 2 -p cbr -e 44 -c 2 -a 0 -i 24 -k RTR 
- -t 3.431737648 -s 3 -d 2 -p cbr -e 44 -c 2 -a 0 -i 24 -k RTR
h -t 3.431737648 -s 3 -d 2 -p cbr -e 44 -c 2 -a 0 -i 24 -k RTR
+ -t 3.433775487 -s 2 -d 6 -p cbr -e 44 -c 2 -a 0 -i 24 -k RTR 
- -t 3.433775487 -s 2 -d 6 -p cbr -e 44 -c 2 -a 0 -i 24 -k RTR
h -t 3.433775487 -s 2 -d 6 -p cbr -e 44 -c 2 -a 0 -i 24 -k RTR
r -t 3.435773506 -s 6 -d 6 -p cbr -e 24 -c 2 -a 0 -i 24 -k AGT
+ -t 3.600000000 -s 0 -d -1 -p cbr -e 1000 -c 2 -a 0 -i 25 -k AGT 
- -t 3.600000000 -s 0 -d -1 -p cbr -e 1000 -c 2 -a 0 -i 25 -k AGT
h -t 3.600000000 -s 0 -d -1 -p cbr -e 1000 -c 2 -a 0 -i 25 -k AGT
+ -t 3.600000000 -s 0 -d -1 -p cbr -e 24 -c 2 -a 0 -i 26 -k AGT 
- -t 3.600000000 -s 0 -d -1 -p cbr -e 24 -c 2 -a 0 -i 26 -k AGT
h -t 3.600000000 -s 0 -d -1 -p cbr -e 24 -c 2 -a 0 -i 26 -k AGT
+ -t 3.600000000 -s 0 -d 3 -p cbr -e 1020 -c 2 -a 0 -i 25 -k RTR 
- -t 3.600000000 -s 0 -d 3 -p cbr -e 1020 -c 2 -a 0 -i 25 -k RTR
h -t 3.600000000 -s 0 -d 3 -p cbr -e 1020 -c 2 -a 0 -i 25 -k RTR
+ -t 3.600000000 -s 0 -d 3 -p cbr -e 44 -c 2 -a 0 -i 26 -k RTR 
- -t 3.600000000 -s 0 -d 3 -p cbr -e 44 -c 2 -a 0 -i 26 -k RTR
h -t 3.600000000 -s 0 -d 3 -p cbr -e 44 -c 2 -a 0 -i 26 -k RTR
+ -t 3.609602424 -s 3 -d 2 -p cbr -e 1020 -c 2 -a 0 -i 25 -k RTR 
- -t 3.609602424 -s 3 -d 2 -p cbr -e 1020 -c 2 -a 0 -i 25 -k RTR
h -t 3.609602424 -s 3 -d 2 -p cbr -e 1020 -c 2 -a 0 -i 25 -k RTR
+ -t 3.619508262 -s 2 -d 6 -p cbr -e 1020 -c 2 -a 0 -i 25 -k RTR 
- -t 3.619508262 -s 2 -d 6 -p cbr -e 1020 -c 2 -a 0 -i 25 -k RTR
h -t 3.619508262 -s 2 -d 6 -p cbr -e 1020 -c 2 -a 0 -i 25 -k RTR
r -t 3.629634282 -s 6 -d 6 -p cbr -e 1000 -c 2 -a 0 -i 25 -k AGT
+ -t 3.631977648 -s 3 -d 2 -p cbr -e 44 -c 2 -a 0 -i 26 -k RTR 
- -t 3.631977648 -s 3 -d 2 -p cbr -e 44 -c 2 -a 0 -i 26 -k RTR
h -t 3.631977648 -s 3 -d 2 -p cbr -e 44 -c 2 -a 0 -i 26 -k RTR
+ -t 3.634275487 -s 2 -d 6 -p cbr -e 44 -c 2 -a 0 -i 26 -k RTR 
- -t 3.634275487 -s 2 -d 6 -p cbr -e 44 -c 2 -a 0 -i 26 -k RTR
h -t 3.634275487 -s 2 -d 6 -p cbr -e 44 -c 2 -a 0 -i 26 -k RTR
r -t 3.636493506 -s 6 -d 6 -p cbr -e 24 -c 2 -a 0 -i 26 -k AGT
+ -t 3.800000000 -s 0 -d -1 -p cbr -e 1000 -c 2 -a 0 -i 27 -k AGT 
- -t 3.800000000 -s 0 -d -1 -p cbr -e 1000 -c 2 -a 0 -i 27 -k AGT
h -t 3.800000000 -s 0 -d -1 -p cbr -e 1000 -c 2 -a 0 -i 27 -k AGT
+ -t 3.800000000 -s 0 -d -1 -p cbr -e 24 -c 2 -a 0 -i 28 -k AGT 
- -t 3.800000000 -s 0 -d -1 -p cbr -e 24 -c 2 -a 0 -i 28 -k AGT
h -t 3.800000000 -s 0 -d -1 -p cbr -e 24 -c 2 -a 0 -i 28 -k AGT
+ -t 3.800000000 -s 0 -d 3 -p cbr -e 1020 -c 2 -a 0 -i 27 -k RTR 
- -t 3.800000000 -s 0 -d 3 -p cbr -e 1020 -c 2 -a 0 -i 27 -k RTR
h -t 3.800000000 -s 0 -d 3 -p cbr -e 1020 -c 2 -a 0 -i 27 -k RTR
+ -t 3.800000000 -s 0 -d 3 -p cbr -e 44 -c 2 -a 0 -i 28 -k RTR 
- -t 3.800000000 -s 0 -d 3 -p cbr -e 44 -c 2 -a 0 -i 28 -k RTR
h -t 3.800000000 -s 0 -d 3 -p cbr -e 44 -c 2 -a 0 -i 28 -k RTR
+ -t 3.809702424 -s 3 -d 2 -p cbr -e 1020 -c 2 -a 0 -i 27 -k RTR 
- -t 3.809702424 -s 3 -d 2 -p cbr -e 1020 -c 2 -a 0 -i 27 -k RTR
h -t 3.809702424 -s 3 -d 2 -p cbr -e 1020 -c 2 -a 0 -i 27 -k RTR
+ -t 3.819668262 -s 2 -d 6 -p cbr -e 1020 -c 2 -a 0 -i 27 -k RTR 
- -t 3.819668262 -s 2 -d 6 -p cbr -e 1020 -c 2 -a 0 -i 27 -k RTR
h -t 3.819668262 -s 2 -d 6 -p cbr -e 1020 -c 2 -a 0 -i 27 -k RTR
r -t 3.829554282 -s 6 -d 6 -p cbr -e 1000 -c 2 -a 0 -i 27 -k AGT
+ -t 3.831897648 -s 3 -d 2 -p cbr -e 44 -c 2 -a 0 -i 28 -k RTR 
- -t 3.831897648 -s 3 -d 2 -p cbr -e 44 -c 2 -a 0 -i 28 -k RTR
h -t 3.831897648 -s 3 -d 2 -p cbr -e 44 -c 2 -a 0 -i 28 -k RTR
+ -t 3.833935487 -s 2 -d 6 -p cbr -e 44 -c 2 -a 0 -i 28 -k RTR 
- -t 3.833935487 -s 2 -d 6 -p cbr -e 44 -c 2 -a 0 -i 28 -k RTR
h -t 3.833935487 -s 2 -d 6 -p cbr -e 44 -c 2 -a 0 -i 28 -k RTR
r -t 3.835973506 -s 6 -d 6 -p cbr -e 24 -c 2 -a 0 -i 28 -k AGT
+ -t 4.000000000 -s 0 -d -1 -p cbr -e 1000 -c 2 -a 0 -i 29 -k AGT 
- -t 4.000000000 -s 0 -d -1 -p cbr -e 1000 -c 2 -a 0 -i 29 -k AGT
h -t 4.000000000 -s 0 -d -1 -p cbr -e 1000 -c 2 -a 0 -i 29 -k AGT
+ -t 4.000000000 -s 0 -d -1 -p cbr -e 24 -c 2 -a 0 -i 30 -k AGT 
- -t 4.000000000 -s 0 -d -1 -p cbr -e 24 -c 2 -a 0 -i 30 -k AGT
h -t 4.000000000 -s 0 -d -1 -p cbr -e 24 -c 2 -a 0 -i 30 -k AGT
+ -t 4.000000000 -s 0 -d 3 -p cbr -e 1020 -c 2 -a 0 -i 29 -k RTR 
- -t 4.000000000 -s 0 -d 3 -p cbr -e 1020 -c 2 -a 0 -i 29 -k RTR
h -t 4.000000000 -s 0 -d 3 -p cbr -e 1020 -c 2 -a 0 -i 29 -k RTR
+ -t 4.000000000 -s 0 -d 3 -p cbr -e 44 -c 2 -a 0 -i 30 -k RTR 
- -t 4.000000000 -s 0 -d 3 -p cbr -e 44 -c 2 -a 0 -i 30 -k RTR
h -t 4.000000000 -s 0 -d 3 -p cbr -e 44 -c 2 -a 0 -i 30 -k RTR
+ -t 4.009682424 -s 3 -d 2 -p cbr -e 1020 -c 2 -a 0 -i 29 -k RTR 
- -t 4.009682424 -s 3 -d 2 -p cbr -e 1020 -c 2 -a 0 -i 29 -k RTR
h -t 4.009682424 -s 3 -d 2 -p cbr -e 1020 -c 2 -a 0 -i 29 -k RTR
+ -t 4.011681655 -s 3 -d 2 -p cbr -e 44 -c 2 -a 0 -i 30 -k RTR 
- -t 4.011681655 -s 3 -d 2 -p cbr -e 44 -c 2 -a 0 -i 30 -k RTR
h -t 4.011681655 -s 3 -d 2 -p cbr -e 44 -c 2 -a 0 -i 30 -k RTR
+ -t 4.021727494 -s 2 -d 6 -p cbr -e 1020 -c 2 -a 0 -i 29 -k RTR 
- -t 4.021727494 -s 2 -d 6 -p cbr -e 1020 -c 2 -a 0 -i 29 -k RTR
h -t 4.021727494 -s 2 -d 6 -p cbr -e 1020 -c 2 -a 0 -i 29 -k RTR
+ -t 4.023725946 -s 2 -d 6 -p cbr -e 44 -c 2 -a 0 -i 30 -k RTR 
- -t 4.023725946 -s 2 -d 6 -p cbr -e 44 -c 2 -a 0 -i 30 -k RTR
h -t 4.023725946 -s 2 -d 6 -p cbr -e 44 -c 2 -a 0 -i 30 -k RTR
r -t 4.033671965 -s 6 -d 6 -p cbr -e 1000 -c 2 -a 0 -i 29 -k AGT
r -t 4.035730657 -s 6 -d 6 -p cbr -e 24 -c 2 -a 0 -i 30 -k AGT
+ -t 4.200000000 -s 0 -d -1 -p cbr -e 1000 -c 2 -a 0 -i 31 -k AGT 
- -t 4.200000000 -s 0 -d -1 -p cbr -e 1000 -c 2 -a 0 -i 31 -k AGT
h -t 4.200000000 -s 0 -d -1 -p cbr -e 1000 -c 2 -a 0 -i 31 -k AGT
+ -t 4.200000000 -s 0 -d -1 -p cbr -e 24 -c 2 -a 0 -i 32 -k AGT 
- -t 4.200000000 -s 0 -d -1 -p cbr -e 24 -c 2 -a 0 -i 32 -k AGT
h -t 4.200000000 -s 0 -d -1 -p cbr -e 24 -c 2 -a 0 -i 32 -k AGT
+ -t 4.200000000 -s 0 -d 3 -p cbr -e 1020 -c 2 -a 0 -i 31 -k RTR 
- -t 4.200000000 -s 0 -d 3 -p cbr -e 1020 -c 2 -a 0 -i 31 -k RTR
h -t 4.200000000 -s 0 -d 3 -p cbr -e 1020 -c 2 -a 0 -i 31 -k RTR
+ -t 4.200000000 -s 0 -d 3 -p cbr -e 44 -c 2 -a 0 -i 32 -k RTR 
- -t 4.200000000 -s 0 -d 3 -p cbr -e 44 -c 2 -a 0 -i 32 -k RTR
h -t 4.200000000 -s 0 -d 3 -p cbr -e 44 -c 2 -a 0 -i 32 -k RTR
+ -t 4.209542424 -s 3 -d 2 -p cbr -e 1020 -c 2 -a 0 -i 31 -k RTR 
- -t 4.209542424 -s 3 -d 2 -p cbr -e 1020 -c 2 -a 0 -i 31 -k RTR
h -t 4.209542424 -s 3 -d 2 -p cbr -e 1020 -c 2 -a 0 -i 31 -k RTR
+ -t 4.219728262 -s 2 -d 6 -p cbr -e 1020 -c 2 -a 0 -i 31 -k RTR 
- -t 4.219728262 -s 2 -d 6 -p cbr -e 1020 -c 2 -a 0 -i 31 -k RTR
h -t 4.219728262 -s 2 -d 6 -p cbr -e 1020 -c 2 -a 0 -i 31 -k RTR
+ -t 4.222011732 -s 3 -d 2 -p cbr -e 44 -c 2 -a 0 -i 32 -k RTR 
- -t 4.222011732 -s 3 -d 2 -p cbr -e 44 -c 2 -a 0 -i 32 -k RTR
h -t 4.222011732 -s 3 -d 2 -p cbr -e 44 -c 2 -a 0 -i 32 -k RTR
+ -t 4.223889570 -s 2 -d 6 -p cbr -e 44 -c 2 -a 0 -i 32 -k RTR 
- -t 4.223889570 -s 2 -d 6 -p cbr -e 44 -c 2 -a 0 -i 32 -k RTR
h -t 4.223889570 -s 2 -d 6 -p cbr -e 44 -c 2 -a 0 -i 32 -k RTR
r -t 4.233635590 -s 6 -d 6 -p cbr -e 1000 -c 2 -a 0 -i 31 -k AGT
r -t 4.236054282 -s 6 -d 6 -p cbr -e 24 -c 2 -a 0 -i 32 -k AGT
+ -t 4.400000000 -s 0 -d -1 -p cbr -e 1000 -c 2 -a 0 -i 33 -k AGT 
- -t 4.400000000 -s 0 -d -1 -p cbr -e 1000 -c 2 -a 0 -i 33 -k AGT
h -t 4.400000000 -s 0 -d -1 -p cbr -e 1000 -c 2 -a 0 -i 33 -k AGT
+ -t 4.400000000 -s 0 -d -1 -p cbr -e 24 -c 2 -a 0 -i 34 -k AGT 
- -t 4.400000000 -s 0 -d -1 -p cbr -e 24 -c 2 -a 0 -i 34 -k AGT
h -t 4.400000000 -s 0 -d -1 -p cbr -e 24 -c 2 -a 0 -i 34 -k AGT
+ -t 4.400000000 -s 0 -d 3 -p cbr -e 1020 -c 2 -a 0 -i 33 -k RTR 
- -t 4.400000000 -s 0 -d 3 -p cbr -e 1020 -c 2 -a 0 -i 33 -k RTR
h -t 4.400000000 -s 0 -d 3 -p cbr -e 1020 -c 2 -a 0 -i 33 -k RTR
+ -t 4.400000000 -s 0 -d 3 -p cbr -e 44 -c 2 -a 0 -i 34 -k RTR 
- -t 4.400000000 -s 0 -d 3 -p cbr -e 44 -c 2 -a 0 -i 34 -k RTR
h -t 4.400000000 -s 0 -d 3 -p cbr -e 44 -c 2 -a 0 -i 34 -k RTR
+ -t 4.409662424 -s 3 -d 2 -p cbr -e 1020 -c 2 -a 0 -i 33 -k RTR 
- -t 4.409662424 -s 3 -d 2 -p cbr -e 1020 -c 2 -a 0 -i 33 -k RTR
h -t 4.409662424 -s 3 -d 2 -p cbr -e 1020 -c 2 -a 0 -i 33 -k RTR
+ -t 4.411601655 -s 3 -d 2 -p cbr -e 44 -c 2 -a 0 -i 34 -k RTR 
- -t 4.411601655 -s 3 -d 2 -p cbr -e 44 -c 2 -a 0 -i 34 -k RTR
h -t 4.411601655 -s 3 -d 2 -p cbr -e 44 -c 2 -a 0 -i 34 -k RTR
+ -t 4.421427494 -s 2 -d 6 -p cbr -e 1020 -c 2 -a 0 -i 33 -k RTR 
- -t 4.421427494 -s 2 -d 6 -p cbr -e 1020 -c 2 -a 0 -i 33 -k RTR
h -t 4.421427494 -s 2 -d 6 -p cbr -e 1020 -c 2 -a 0 -i 33 -k RTR
r -t 4.431253513 -s 6 -d 6 -p cbr -e 1000 -c 2 -a 0 -i 33 -k AGT
+ -t 4.433756422 -s 2 -d 6 -p cbr -e 44 -c 2 -a 0 -i 34 -k RTR 
- -t 4.433756422 -s 2 -d 6 -p cbr -e 44 -c 2 -a 0 -i 34 -k RTR
h -t 4.433756422 -s 2 -d 6 -p cbr -e 44 -c 2 -a 0 -i 34 -k RTR
r -t 4.435714442 -s 6 -d 6 -p cbr -e 24 -c 2 -a 0 -i 34 -k AGT
+ -t 4.600000000 -s 0 -d -1 -p cbr -e 1000 -c 2 -a 0 -i 35 -k AGT 
- -t 4.600000000 -s 0 -d -1 -p cbr -e 1000 -c 2 -a 0 -i 35 -k AGT
h -t 4.600000000 -s 0 -d -1 -p cbr -e 1000 -c 2 -a 0 -i 35 -k AGT
+ -t 4.600000000 -s 0 -d -1 -p cbr -e 24 -c 2 -a 0 -i 36 -k AGT 
- -t 4.600000000 -s 0 -d -1 -p cbr -e 24 -c 2 -a 0 -i 36 -k AGT
h -t 4.600000000 -s 0 -d -1 -p cbr -e 24 -c 2 -a 0 -i 36 -k AGT
+ -t 4.600000000 -s 0 -d 3 -p cbr -e 1020 -c 2 -a 0 -i 35 -k RTR 
- -t 4.600000000 -s 0 -d 3 -p cbr -e 1020 -c 2 -a 0 -i 35 -k RTR
h -t 4.600000000 -s 0 -d 3 -p cbr -e 1020 -c 2 -a 0 -i 35 -k RTR
+ -t 4.600000000 -s 0 -d 3 -p cbr -e 44 -c 2 -a 0 -i 36 -k RTR 
- -t 4.600000000 -s 0 -d 3 -p cbr -e 44 -c 2 -a 0 -i 36 -k RTR
h -t 4.600000000 -s 0 -d 3 -p cbr -e 44 -c 2 -a 0 -i 36 -k RTR
+ -t 4.609622424 -s 3 -d 2 -p cbr -e 1020 -c 2 -a 0 -i 35 -k RTR 
- -t 4.609622424 -s 3 -d 2 -p cbr -e 1020 -c 2 -a 0 -i 35 -k RTR
h -t 4.609622424 -s 3 -d 2 -p cbr -e 1020 -c 2 -a 0 -i 35 -k RTR
+ -t 4.619288262 -s 2 -d 6 -p cbr -e 1020 -c 2 -a 0 -i 35 -k RTR 
- -t 4.619288262 -s 2 -d 6 -p cbr -e 1020 -c 2 -a 0 -i 35 -k RTR
h -t 4.619288262 -s 2 -d 6 -p cbr -e 1020 -c 2 -a 0 -i 35 -k RTR
r -t 4.629534282 -s 6 -d 6 -p cbr -e 1000 -c 2 -a 0 -i 35 -k AGT
+ -t 4.631817648 -s 3 -d 2 -p cbr -e 44 -c 2 -a 0 -i 36 -k RTR 
- -t 4.631817648 -s 3 -d 2 -p cbr -e 44 -c 2 -a 0 -i 36 -k RTR
h -t 4.631817648 -s 3 -d 2 -p cbr -e 44 -c 2 -a 0 -i 36 -k RTR
+ -t 4.633715487 -s 2 -d 6 -p cbr -e 44 -c 2 -a 0 -i 36 -k RTR 
- -t 4.633715487 -s 2 -d 6 -p cbr -e 44 -c 2 -a 0 -i 36 -k RTR
h -t 4.633715487 -s 2 -d 6 -p cbr -e 44 -c 2 -a 0 -i 36 -k RTR
r -t 4.635733506 -s 6 -d 6 -p cbr -e 24 -c 2 -a 0 -i 36 -k AGT
+ -t 4.800000000 -s 0 -d -1 -p cbr -e 1000 -c 2 -a 0 -i 37 -k AGT 
- -t 4.800000000 -s 0 -d -1 -p cbr -e 1000 -c 2 -a 0 -i 37 -k AGT
h -t 4.800000000 -s 0 -d -1 -p cbr -e 1000 -c 2 -a 0 -i 37 -k AGT
+ -t 4.800000000 -s 0 -d -1 -p cbr -e 24 -c 2 -a 0 -i 38 -k AGT 
- -t 4.800000000 -s 0 -d -1 -p cbr -e 24 -c 2 -a 0 -i 38 -k AGT
h -t 4.800000000 -s 0 -d -1 -p cbr -e 24 -c 2 -a 0 -i 38 -k AGT
+ -t 4.800000000 -s 0 -d 3 -p cbr -e 1020 -c 2 -a 0 -i 37 -k RTR 
- -t 4.800000000 -s 0 -d 3 -p cbr -e 1020 -c 2 -a 0 -i 37 -k RTR
h -t 4.800000000 -s 0 -d 3 -p cbr -e 1020 -c 2 -a 0 -i 37 -k RTR
+ -t 4.800000000 -s 0 -d 3 -p cbr -e 44 -c 2 -a 0 -i 38 -k RTR 
- -t 4.800000000 -s 0 -d 3 -p cbr -e 44 -c 2 -a 0 -i 38 -k RTR
h -t 4.800000000 -s 0 -d 3 -p cbr -e 44 -c 2 -a 0 -i 38 -k RTR
+ -t 4.809922424 -s 3 -d 2 -p cbr -e 1020 -c 2 -a 0 -i 37 -k RTR 
- -t 4.809922424 -s 3 -d 2 -p cbr -e 1020 -c 2 -a 0 -i 37 -k RTR
h -t 4.809922424 -s 3 -d 2 -p cbr -e 1020 -c 2 -a 0 -i 37 -k RTR
+ -t 4.812221655 -s 3 -d 2 -p cbr -e 44 -c 2 -a 0 -i 38 -k RTR 
- -t 4.812221655 -s 3 -d 2 -p cbr -e 44 -c 2 -a 0 -i 38 -k RTR
h -t 4.812221655 -s 3 -d 2 -p cbr -e 44 -c 2 -a 0 -i 38 -k RTR
+ -t 4.821907494 -s 2 -d 6 -p cbr -e 1020 -c 2 -a 0 -i 37 -k RTR 
- -t 4.821907494 -s 2 -d 6 -p cbr -e 1020 -c 2 -a 0 -i 37 -k RTR
h -t 4.821907494 -s 2 -d 6 -p cbr -e 1020 -c 2 -a 0 -i 37 -k RTR
r -t 4.833320739 -s 6 -d 6 -p cbr -e 1000 -c 2 -a 0 -i 37 -k AGT
+ -t 4.836043648 -s 2 -d 6 -p cbr -e 44 -c 2 -a 0 -i 38 -k RTR 
- -t 4.836043648 -s 2 -d 6 -p cbr -e 44 -c 2 -a 0 -i 38 -k RTR
h -t 4.836043648 -s 2 -d 6 -p cbr -e 44 -c 2 -a 0 -i 38 -k RTR
r -t 4.838221667 -s 6 -d 6 -p cbr -e 24 -c 2 -a 0 -i 38 -k AGT
+ -t 5.000000000 -s 0 -d -1 -p cbr -e 1000 -c 2 -a 0 -i 39 -k AGT 
- -t 5.000000000 -s 0 -d -1 -p cbr -e 1000 -c 2 -a 0 -i 39 -k AGT
h -t 5.000000000 -s 0 -d -1 -p cbr -e 1000 -c 2 -a 0 -i 39 -k AGT
+ -t 5.000000000 -s 0 -d -1 -p cbr -e 24 -c 2 -a 0 -i 40 -k AGT 
- -t 5.000000000 -s 0 -d -1 -p cbr -e 24 -c 2 -a 0 -i 40 -k AGT
h -t 5.000000000 -s 0 -d -1 -p cbr -e 24 -c 2 -a 0 -i 40 -k AGT
+ -t 5.000000000 -s 0 -d 3 -p cbr -e 1020 -c 2 -a 0 -i 39 -k RTR 
- -t 5.000000000 -s 0 -d 3 -p cbr -e 1020 -c 2 -a 0 -i 39 -k RTR
h -t 5.000000000 -s 0 -d 3 -p cbr -e 1020 -c 2 -a 0 -i 39 -k RTR
+ -t 5.000000000 -s 0 -d 3 -p cbr -e 44 -c 2 -a 0 -i 40 -k RTR 
- -t 5.000000000 -s 0 -d 3 -p cbr -e 44 -c 2 -a 0 -i 40 -k RTR
h -t 5.000000000 -s 0 -d 3 -p cbr -e 44 -c 2 -a 0 -i 40 -k RTR
+ -t 5.009562424 -s 3 -d 2 -p cbr -e 1020 -c 2 -a 0 -i 39 -k RTR 
- -t 5.009562424 -s 3 -d 2 -p cbr -e 1020 -c 2 -a 0 -i 39 -k RTR
h -t 5.009562424 -s 3 -d 2 -p cbr -e 1020 -c 2 -a 0 -i 39 -k RTR
+ -t 5.019468262 -s 2 -d 6 -p cbr -e 1020 -c 2 -a 0 -i 39 -k RTR 
- -t 5.019468262 -s 2 -d 6 -p cbr -e 1020 -c 2 -a 0 -i 39 -k RTR
h -t 5.019468262 -s 2 -d 6 -p cbr -e 1020 -c 2 -a 0 -i 39 -k RTR
r -t 5.029174282 -s 6 -d 6 -p cbr -e 1000 -c 2 -a 0 -i 39 -k AGT
+ -t 5.031597648 -s 3 -d 2 -p cbr -e 44 -c 2 -a 0 -i 40 -k RTR 
- -t 5.031597648 -s 3 -d 2 -p cbr -e 44 -c 2 -a 0 -i 40 -k RTR
h -t 5.031597648 -s 3 -d 2 -p cbr -e 44 -c 2 -a 0 -i 40 -k RTR
+ -t 5.033855487 -s 2 -d 6 -p cbr -e 44 -c 2 -a 0 -i 40 -k RTR 
- -t 5.033855487 -s 2 -d 6 -p cbr -e 44 -c 2 -a 0 -i 40 -k RTR
h -t 5.033855487 -s 2 -d 6 -p cbr -e 44 -c 2 -a 0 -i 40 -k RTR
r -t 5.035933506 -s 6 -d 6 -p cbr -e 24 -c 2 -a 0 -i 40 -k AGT
+ -t 5.200000000 -s 0 -d -1 -p cbr -e 1000 -c 2 -a 0 -i 41 -k AGT 
- -t 5.200000000 -s 0 -d -1 -p cbr -e 1000 -c 2 -a 0 -i 41 -k AGT
h -t 5.200000000 -s 0 -d -1 -p cbr -e 1000 -c 2 -a 0 -i 41 -k AGT
+ -t 5.200000000 -s 0 -d -1 -p cbr -e 24 -c 2 -a 0 -i 42 -k AGT 
- -t 5.200000000 -s 0 -d -1 -p cbr -e 24 -c 2 -a 0 -i 42 -k AGT
h -t 5.200000000 -s 0 -d -1 -p cbr -e 24 -c 2 -a 0 -i 42 -k AGT
+ -t 5.200000000 -s 0 -d 3 -p cbr -e 1020 -c 2 -a 0 -i 41 -k RTR 
- -t 5.200000000 -s 0 -d 3 -p cbr -e 1020 -c 2 -a 0 -i 41 -k RTR
h -t 5.200000000 -s 0 -d 3 -p cbr -e 1020 -c 2 -a 0 -i 41 -k RTR
+ -t 5.200000000 -s 0 -d 3 -p cbr -e 44 -c 2 -a 0 -i 42 -k RTR 
- -t 5.200000000 -s 0 -d 3 -p cbr -e 44 -c 2 -a 0 -i 42 -k RTR