Sconfig 0.00000 tap: on snoop: rts? on errs? on
Sconfig 0.00000 salvage: on !bd replies? on
Sconfig 0.00000 grat error: on grat reply: on
Sconfig 0.00000 $reply for props: on ring 0 search: on
Sconfig 0.00000 using MOBICACHE
s 2.000000000 _0_ AGT  --- 0 cbr 1000 [0 0 0 0] ------- [0:0 6:0 32 0] [0] 0 0
r 2.000000000 _0_ RTR  --- 0 cbr 1000 [0 0 0 0] ------- [0:0 6:0 32 0] [0] 0 0
s 2.000000000 _0_ AGT  --- 2 cbr 24 [0 0 0 0] ------- [0:0 6:0 32 0] [1] 0 0
r 2.000000000 _0_ RTR  --- 2 cbr 24 [0 0 0 0] ------- [0:0 6:0 32 0] [1] 0 0
s 2.005031958 _0_ RTR  --- 1 DSR 32 [0 0 0 0] ------- [0:255 6:255 32 0] 1 [1 1] [0 1 0 0->0] [0 0 0 0->0]
r 2.006292117 _1_ RTR  --- 1 DSR 32 [0 ffffffff 0 800] ------- [0:255 6:255 32 0] 1 [1 1] [0 1 0 0->0] [0 0 0 0->0]
r 2.006292691 _5_ RTR  --- 1 DSR 32 [0 ffffffff 0 800] ------- [0:255 6:255 32 0] 1 [1 1] [0 1 0 0->0] [0 0 0 0->0]
r 2.006292749 _4_ RTR  --- 1 DSR 32 [0 ffffffff 0 800] ------- [0:255 6:255 32 0] 1 [1 1] [0 1 0 0->0] [0 0 0 0->0]
r 2.006292765 _3_ RTR  --- 1 DSR 32 [0 ffffffff 0 800] ------- [0:255 6:255 32 0] 1 [1 1] [0 1 0 0->0] [0 0 0 0->0]
s 2.064820896 _0_ RTR  --- 6 DSR 32 [0 0 0 0] ------- [0:255 6:255 32 0] 1 [1 2] [0 2 0 0->0] [0 0 0 0->0]
r 2.066061056 _1_ RTR  --- 6 DSR 32 [0 ffffffff 0 800] ------- [0:255 6:255 32 0] 1 [1 2] [0 2 0 0->0] [0 0 0 0->0]
r 2.066061630 _5_ RTR  --- 6 DSR 32 [0 ffffffff 0 800] ------- [0:255 6:255 32 0] 1 [1 2] [0 2 0 0->0] [0 0 0 0->0]
r 2.066061688 _4_ RTR  --- 6 DSR 32 [0 ffffffff 0 800] ------- [0:255 6:255 32 0] 1 [1 2] [0 2 0 0->0] [0 0 0 0->0]
r 2.066061704 _3_ RTR  --- 6 DSR 32 [0 ffffffff 0 800] ------- [0:255 6:255 32 0] 1 [1 2] [0 2 0 0->0] [0 0 0 0->0]
f 2.066513086 _4_ RTR  --- 6 DSR 48 [0 ffffffff 0 800] ------- [0:255 6:255 32 0] 2 [1 2] [0 2 0 0->0] [0 0 0 0->0]
r 2.067501147 _5_ RTR  --- 6 DSR 48 [0 ffffffff 4 800] ------- [0:255 6:255 32 0] 2 [1 2] [0 2 0 0->0] [0 0 0 0->0]
r 2.067501877 _0_ RTR  --- 6 DSR 48 [0 ffffffff 4 800] ------- [0:255 6:255 32 0] 2 [1 2] [0 2 0 0->0] [0 0 0 0->0]
r 2.067501898 _1_ RTR  --- 6 DSR 48 [0 ffffffff 4 800] ------- [0:255 6:255 32 0] 2 [1 2] [0 2 0 0->0] [0 0 0 0->0]
f 2.068747568 _5_ RTR  --- 6 DSR 48 [0 ffffffff 0 800] ------- [0:255 6:255 32 0] 2 [1 2] [0 2 0 0->0] [0 0 0 0->0]
r 2.069895629 _4_ RTR  --- 6 DSR 48 [0 ffffffff 5 800] ------- [0:255 6:255 32 0] 2 [1 2] [0 2 0 0->0] [0 0 0 0->0]
r 2.069896301 _0_ RTR  --- 6 DSR 48 [0 ffffffff 5 800] ------- [0:255 6:255 32 0] 2 [1 2] [0 2 0 0->0] [0 0 0 0->0]
r 2.069896319 _1_ RTR  --- 6 DSR 48 [0 ffffffff 5 800] ------- [0:255 6:255 32 0] 2 [1 2] [0 2 0 0->0] [0 0 0 0->0]
f 2.070280415 _1_ RTR  --- 6 DSR 48 [0 ffffffff 0 800] ------- [0:255 6:255 32 0] 2 [1 2] [0 2 0 0->0] [0 0 0 0->0]
r 2.071308575 _0_ RTR  --- 6 DSR 48 [0 ffffffff 1 800] ------- [0:255 6:255 32 0] 2 [1 2] [0 2 0 0->0] [0 0 0 0->0]
r 2.071309064 _3_ RTR  --- 6 DSR 48 [0 ffffffff 1 800] ------- [0:255 6:255 32 0] 2 [1 2] [0 2 0 0->0] [0 0 0 0->0]
r 2.071309167 _5_ RTR  --- 6 DSR 48 [0 ffffffff 1 800] ------- [0:255 6:255 32 0] 2 [1 2] [0 2 0 0->0] [0 0 0 0->0]
r 2.071309228 _4_ RTR  --- 6 DSR 48 [0 ffffffff 1 800] ------- [0:255 6:255 32 0] 2 [1 2] [0 2 0 0->0] [0 0 0 0->0]
f 2.075646211 _3_ RTR  --- 6 DSR 48 [0 ffffffff 0 800] ------- [0:255 6:255 32 0] 2 [1 2] [0 2 0 0->0] [0 0 0 0->0]
r 2.076994824 _2_ RTR  --- 6 DSR 48 [0 ffffffff 3 800] ------- [0:255 6:255 32 0] 2 [1 2] [0 2 0 0->0] [0 0 0 0->0]
r 2.076994860 _1_ RTR  --- 6 DSR 48 [0 ffffffff 3 800] ------- [0:255 6:255 32 0] 2 [1 2] [0 2 0 0->0] [0 0 0 0->0]
r 2.076995019 _0_ RTR  --- 6 DSR 48 [0 ffffffff 3 800] ------- [0:255 6:255 32 0] 2 [1 2] [0 2 0 0->0] [0 0 0 0->0]
f 2.086963356 _2_ RTR  --- 6 DSR 68 [0 ffffffff 3 800] ------- [0:255 6:255 32 0] 3 [1 2] [0 2 0 0->0] [0 0 0 0->0]
r 2.088451969 _3_ RTR  --- 6 DSR 68 [0 ffffffff 2 800] ------- [0:255 6:255 32 0] 3 [1 2] [0 2 0 0->0] [0 0 0 0->0]
r 2.088452029 _6_ RTR  --- 6 DSR 68 [0 ffffffff 2 800] ------- [0:255 6:255 32 0] 3 [1 2] [0 2 0 0->0] [0 0 0 0->0]
s 2.095924383 _6_ RTR  --- 8 DSR 60 [0 0 0 0] ------- [6:255 0:255 254 2] 4 [0 2] [1 2 4 0->6] [0 0 0 0->0]
r 2.101260094 _2_ RTR  --- 8 DSR 60 [13a 2 6 800] ------- [6:255 0:255 254 2] 4 [0 2] [1 2 4 0->6] [0 0 0 0->0]
f 2.101260094 _2_ RTR  --- 8 DSR 60 [13a 2 6 800] ------- [6:255 0:255 253 3] 4 [0 2] [1 2 4 0->6] [0 0 0 0->0]
r 2.106779385 _3_ RTR  --- 8 DSR 60 [13a 3 2 800] ------- [6:255 0:255 253 3] 4 [0 2] [1 2 4 0->6] [0 0 0 0->0]
f 2.106779385 _3_ RTR  --- 8 DSR 60 [13a 3 2 800] ------- [6:255 0:255 252 0] 4 [0 2] [1 2 4 0->6] [0 0 0 0->0]
r 2.111840040 _0_ RTR  --- 8 DSR 60 [13a 0 3 800] ------- [6:255 0:255 252 0] 4 [0 2] [1 2 4 0->6] [0 0 0 0->0]
SFESTs 2.111840040 _0_ 0 [0 -> 6] 1(1) to 3 [0 |3 2 6 ]
SFESTs 2.111840040 _0_ 2 [0 -> 6] 1(1) to 3 [0 |3 2 6 ]
s 2.111840040 _0_ RTR  --- 0 cbr 1044 [0 0 0 0] ------- [0:0 6:0 32 3] [0] 0 0
r 2.122098464 _3_ RTR  --- 0 cbr 1044 [13a 3 0 800] ------- [0:0 6:0 32 3] [0] 1 0
f 2.122098464 _3_ RTR  --- 0 cbr 1044 [13a 3 0 800] ------- [0:0 6:0 31 2] [0] 1 0
r 2.131956302 _2_ RTR  --- 0 cbr 1044 [13a 2 3 800] ------- [0:0 6:0 31 2] [0] 2 0
f 2.131956302 _2_ RTR  --- 0 cbr 1044 [13a 2 3 800] ------- [0:0 6:0 30 6] [0] 2 0
s 2.141840040 _0_ RTR  --- 2 cbr 68 [0 0 0 0] ------- [0:0 6:0 32 3] [1] 0 0
r 2.142254322 _6_ RTR  --- 0 cbr 1044 [13a 6 2 800] ------- [0:0 6:0 30 6] [0] 3 0
r 2.142254322 _6_ AGT  --- 0 cbr 1000 [13a 6 2 800] ------- [0:0 6:0 30 6] [0] 3 0
r 2.144689688 _3_ RTR  --- 2 cbr 68 [13a 3 0 800] ------- [0:0 6:0 32 3] [1] 1 0
f 2.144689688 _3_ RTR  --- 2 cbr 68 [13a 3 0 800] ------- [0:0 6:0 31 2] [1] 1 0
r 2.147299527 _2_ RTR  --- 2 cbr 68 [13a 2 3 800] ------- [0:0 6:0 31 2] [1] 2 0
f 2.147299527 _2_ RTR  --- 2 cbr 68 [13a 2 3 800] ------- [0:0 6:0 30 6] [1] 2 0
r 2.149509546 _6_ RTR  --- 2 cbr 68 [13a 6 2 800] ------- [0:0 6:0 30 6] [1] 3 0
r 2.149509546 _6_ AGT  --- 2 cbr 24 [13a 6 2 800] ------- [0:0 6:0 30 6] [1] 3 0
s 2.200000000 _0_ AGT  --- 11 cbr 1000 [0 0 0 0] ------- [0:0 6:0 32 0] [2] 0 0
r 2.200000000 _0_ RTR  --- 11 cbr 1000 [0 0 0 0] ------- [0:0 6:0 32 0] [2] 0 0
SFESTs 2.200000000 _0_ 11 [0 -> 6] 1(1) to 3 [0 |3 2 6 ]
s 2.200000000 _0_ AGT  --- 12 cbr 24 [0 0 0 0] ------- [0:0 6:0 32 0] [3] 0 0
r 2.200000000 _0_ RTR  --- 12 cbr 24 [0 0 0 0] ------- [0:0 6:0 32 0] [3] 0 0
SFs 2.200000000 _0_ 12 [0 -> 6] 1(0) to 3 
s 2.200000000 _0_ RTR  --- 11 cbr 1044 [0 0 0 0] ------- [0:0 6:0 32 3] [2] 0 0
s 2.200000000 _0_ RTR  --- 12 cbr 44 [0 0 0 0] ------- [0:0 6:0 32 3] [3] 0 0
r 2.209694424 _3_ RTR  --- 11 cbr 1044 [13a 3 0 800] ------- [0:0 6:0 32 3] [2] 1 0
f 2.209694424 _3_ RTR  --- 11 cbr 1044 [13a 3 0 800] ------- [0:0 6:0 31 2] [2] 1 0
r 2.219552262 _2_ RTR  --- 11 cbr 1044 [13a 2 3 800] ------- [0:0 6:0 31 2] [2] 2 0
f 2.219552262 _2_ RTR  --- 11 cbr 1044 [13a 2 3 800] ------- [0:0 6:0 30 6] [2] 2 0
r 2.221935732 _3_ RTR  --- 12 cbr 44 [13a 3 0 800] ------- [0:0 6:0 32 3] [3] 1 0
SFf 2.221935732 _3_ 12 [0 -> 6] 1 to 2
f 2.221935732 _3_ RTR  --- 12 cbr 44 [13a 3 0 800] ------- [0:0 6:0 31 2] [3] 1 0
r 2.223813570 _2_ RTR  --- 12 cbr 44 [13a 2 3 800] ------- [0:0 6:0 31 2] [3] 2 0
SFf 2.223813570 _2_ 12 [0 -> 6] 1 to 6
f 2.223813570 _2_ RTR  --- 12 cbr 44 [13a 2 3 800] ------- [0:0 6:0 30 6] [3] 2 0
r 2.233711590 _6_ RTR  --- 11 cbr 1044 [13a 6 2 800] ------- [0:0 6:0 30 6] [2] 3 0
r 2.233711590 _6_ AGT  --- 11 cbr 1000 [13a 6 2 800] ------- [0:0 6:0 30 6] [2] 3 0
r 2.235810282 _6_ RTR  --- 12 cbr 44 [13a 6 2 800] ------- [0:0 6:0 30 6] [3] 3 0
r 2.235810282 _6_ AGT  --- 12 cbr 24 [13a 6 2 800] ------- [0:0 6:0 30 6] [3] 3 0
s 2.400000000 _0_ AGT  --- 13 cbr 1000 [0 0 0 0] ------- [0:0 6:0 32 0] [4] 0 0
r 2.400000000 _0_ RTR  --- 13 cbr 1000 [0 0 0 0] ------- [0:0 6:0 32 0] [4] 0 0
SFs 2.400000000 _0_ 13 [0 -> 6] 1(0) to 3 
s 2.400000000 _0_ AGT  --- 14 cbr 24 [0 0 0 0] ------- [0:0 6:0 32 0] [5] 0 0
r 2.400000000 _0_ RTR  --- 14 cbr 24 [0 0 0 0] ------- [0:0 6:0 32 0] [5] 0 0
SFs 2.400000000 _0_ 14 [0 -> 6] 1(0) to 3 
s 2.400000000 _0_ RTR  --- 13 cbr 1020 [0 0 0 0] ------- [0:0 6:0 32 3] [4] 0 0
s 2.400000000 _0_ RTR  --- 14 cbr 44 [0 0 0 0] ------- [0:0 6:0 32 3] [5] 0 0
r 2.409642424 _3_ RTR  --- 13 cbr 1020 [13a 3 0 800] ------- [0:0 6:0 32 3] [4] 1 0
SFf 2.409642424 _3_ 13 [0 -> 6] 1 to 2
f 2.409642424 _3_ RTR  --- 13 cbr 1020 [13a 3 0 800] ------- [0:0 6:0 31 2] [4] 1 0
r 2.411561655 _3_ RTR  --- 14 cbr 44 [13a 3 0 800] ------- [0:0 6:0 32 3] [5] 1 0
SFf 2.411561655 _3_ 14 [0 -> 6] 1 to 2
f 2.411561655 _3_ RTR  --- 14 cbr 44 [13a 3 0 800] ------- [0:0 6:0 31 2] [5] 1 0
r 2.421727494 _2_ RTR  --- 13 cbr 1020 [13a 2 3 800] ------- [0:0 6:0 31 2] [4] 2 0
SFf 2.421727494 _2_ 13 [0 -> 6] 1 to 6
f 2.421727494 _2_ RTR  --- 13 cbr 1020 [13a 2 3 800] ------- [0:0 6:0 30 6] [4] 2 0
r 2.431433513 _6_ RTR  --- 13 cbr 1020 [13a 6 2 800] ------- [0:0 6:0 30 6] [4] 3 0
r 2.431433513 _6_ AGT  --- 13 cbr 1000 [13a 6 2 800] ------- [0:0 6:0 30 6] [4] 3 0
r 2.434076422 _2_ RTR  --- 14 cbr 44 [13a 2 3 800] ------- [0:0 6:0 31 2] [5] 2 0
SFf 2.434076422 _2_ 14 [0 -> 6] 1 to 6
f 2.434076422 _2_ RTR  --- 14 cbr 44 [13a 2 3 800] ------- [0:0 6:0 30 6] [5] 2 0
r 2.436034442 _6_ RTR  --- 14 cbr 44 [13a 6 2 800] ------- [0:0 6:0 30 6] [5] 3 0
r 2.436034442 _6_ AGT  --- 14 cbr 24 [13a 6 2 800] ------- [0:0 6:0 30 6] [5] 3 0
s 2.600000000 _0_ AGT  --- 15 cbr 1000 [0 0 0 0] ------- [0:0 6:0 32 0] [6] 0 0
r 2.600000000 _0_ RTR  --- 15 cbr 1000 [0 0 0 0] ------- [0:0 6:0 32 0] [6] 0 0
SFs 2.600000000 _0_ 15 [0 -> 6] 1(0) to 3 
s 2.600000000 _0_ AGT  --- 16 cbr 24 [0 0 0 0] ------- [0:0 6:0 32 0] [7] 0 0
r 2.600000000 _0_ RTR  --- 16 cbr 24 [0 0 0 0] ------- [0:0 6:0 32 0] [7] 0 0
SFs 2.600000000 _0_ 16 [0 -> 6] 1(0) to 3 
s 2.600000000 _0_ RTR  --- 15 cbr 1020 [0 0 0 0] ------- [0:0 6:0 32 3] [6] 0 0
s 2.600000000 _0_ RTR  --- 16 cbr 44 [0 0 0 0] ------- [0:0 6:0 32 3] [7] 0 0
r 2.609682424 _3_ RTR  --- 15 cbr 1020 [13a 3 0 800] ------- [0:0 6:0 32 3] [6] 1 0
SFf 2.609682424 _3_ 15 [0 -> 6] 1 to 2
f 2.609682424 _3_ RTR  --- 15 cbr 1020 [13a 3 0 800] ------- [0:0 6:0 31 2] [6] 1 0
r 2.619628262 _2_ RTR  --- 15 cbr 1020 [13a 2 3 800] ------- [0:0 6:0 31 2] [6] 2 0
SFf 2.619628262 _2_ 15 [0 -> 6] 1 to 6
f 2.619628262 _2_ RTR  --- 15 cbr 1020 [13a 2 3 800] ------- [0:0 6:0 30 6] [6] 2 0
r 2.621951732 _3_ RTR  --- 16 cbr 44 [13a 3 0 800] ------- [0:0 6:0 32 3] [7] 1 0
SFf 2.621951732 _3_ 16 [0 -> 6] 1 to 2
f 2.621951732 _3_ RTR  --- 16 cbr 44 [13a 3 0 800] ------- [0:0 6:0 31 2] [7] 1 0
r 2.631687988 _6_ RTR  --- 15 cbr 1020 [13a 6 2 800] ------- [0:0 6:0 30 6] [6] 3 0
r 2.631687988 _6_ AGT  --- 15 cbr 1000 [13a 6 2 800] ------- [0:0 6:0 30 6] [6] 3 0
r 2.633990898 _2_ RTR  --- 16 cbr 44 [13a 2 3 800] ------- [0:0 6:0 31 2] [7] 2 0
SFf 2.633990898 _2_ 16 [0 -> 6] 1 to 6
f 2.633990898 _2_ RTR  --- 16 cbr 44 [13a 2 3 800] ------- [0:0 6:0 30 6] [7] 2 0
r 2.635928917 _6_ RTR  --- 16 cbr 44 [13a 6 2 800] ------- [0:0 6:0 30 6] [7] 3 0
r 2.635928917 _6_ AGT  --- 16 cbr 24 [13a 6 2 800] ------- [0:0 6:0 30 6] [7] 3 0
s 2.800000000 _0_ AGT  --- 17 cbr 1000 [0 0 0 0] ------- [0:0 6:0 32 0] [8] 0 0
r 2.800000000 _0_ RTR  --- 17 cbr 1000 [0 0 0 0] ------- [0:0 6:0 32 0] [8] 0 0
SFs 2.800000000 _0_ 17 [0 -> 6] 1(0) to 3 
s 2.800000000 _0_ AGT  --- 18 cbr 24 [0 0 0 0] ------- [0:0 6:0 32 0] [9] 0 0
r 2.800000000 _0_ RTR  --- 18 cbr 24 [0 0 0 0] ------- [0:0 6:0 32 0] [9] 0 0
SFs 2.800000000 _0_ 18 [0 -> 6] 1(0) to 3 
s 2.800000000 _0_ RTR  --- 17 cbr 1020 [0 0 0 0] ------- [0:0 6:0 32 3] [8] 0 0
s 2.800000000 _0_ RTR  --- 18 cbr 44 [0 0 0 0] ------- [0:0 6:0 32 3] [9] 0 0
r 2.809622424 _3_ RTR  --- 17 cbr 1020 [13a 3 0 800] ------- [0:0 6:0 32 3] [8] 1 0
SFf 2.809622424 _3_ 17 [0 -> 6] 1 to 2
f 2.809622424 _3_ RTR  --- 17 cbr 1020 [13a 3 0 800] ------- [0:0 6:0 31 2] [8] 1 0
r 2.819408262 _2_ RTR  --- 17 cbr 1020 [13a 2 3 800] ------- [0:0 6:0 31 2] [8] 2 0
SFf 2.819408262 _2_ 17 [0 -> 6] 1 to 6
f 2.819408262 _2_ RTR  --- 17 cbr 1020 [13a 2 3 800] ------- [0:0 6:0 30 6] [8] 2 0
r 2.829394282 _6_ RTR  --- 17 cbr 1020 [13a 6 2 800] ------- [0:0 6:0 30 6] [8] 3 0
r 2.829394282 _6_ AGT  --- 17 cbr 1000 [13a 6 2 800] ------- [0:0 6:0 30 6] [8] 3 0
r 2.832037648 _3_ RTR  --- 18 cbr 44 [13a 3 0 800] ------- [0:0 6:0 32 3] [9] 1 0
SFf 2.832037648 _3_ 18 [0 -> 6] 1 to 2
f 2.832037648 _3_ RTR  --- 18 cbr 44 [13a 3 0 800] ------- [0:0 6:0 31 2] [9] 1 0
r 2.834055487 _2_ RTR  --- 18 cbr 44 [13a 2 3 800] ------- [0:0 6:0 31 2] [9] 2 0
SFf 2.834055487 _2_ 18 [0 -> 6] 1 to 6
f 2.834055487 _2_ RTR  --- 18 cbr 44 [13a 2 3 800] ------- [0:0 6:0 30 6] [9] 2 0
r 2.836313506 _6_ RTR  --- 18 cbr 44 [13a 6 2 800] ------- [0:0 6:0 30 6] [9] 3 0
r 2.836313506 _6_ AGT  --- 18 cbr 24 [13a 6 2 800] ------- [0:0 6:0 30 6] [9] 3 0
s 3.000000000 _0_ AGT  --- 19 cbr 1000 [0 0 0 0] ------- [0:0 6:0 32 0] [10] 0 0
r 3.000000000 _0_ RTR  --- 19 cbr 1000 [0 0 0 0] ------- [0:0 6:0 32 0] [10] 0 0
SFs 3.000000000 _0_ 19 [0 -> 6] 1(0) to 3 
s 3.000000000 _0_ AGT  --- 20 cbr 24 [0 0 0 0] ------- [0:0 6:0 32 0] [11] 0 0
r 3.000000000 _0_ RTR  --- 20 cbr 24 [0 0 0 0] ------- [0:0 6:0 32 0] [11] 0 0
SFs 3.000000000 _0_ 20 [0 -> 6] 1(0) to 3 
s 3.000000000 _0_ RTR  --- 19 cbr 1020 [0 0 0 0] ------- [0:0 6:0 32 3] [10] 0 0
s 3.000000000 _0_ RTR  --- 20 cbr 44 [0 0 0 0] ------- [0:0 6:0 32 3] [11] 0 0
r 3.009742424 _3_ RTR  --- 19 cbr 1020 [13a 3 0 800] ------- [0:0 6:0 32 3] [10] 1 0
SFf 3.009742424 _3_ 19 [0 -> 6] 1 to 2
f 3.009742424 _3_ RTR  --- 19 cbr 1020 [13a 3 0 800] ------- [0:0 6:0 31 2] [10] 1 0
r 3.019868262 _2_ RTR  --- 19 cbr 1020 [13a 2 3 800] ------- [0:0 6:0 31 2] [10] 2 0
SFf 3.019868262 _2_ 19 [0 -> 6] 1 to 6
f 3.019868262 _2_ RTR  --- 19 cbr 1020 [13a 2 3 800] ------- [0:0 6:0 30 6] [10] 2 0
r 3.029554282 _6_ RTR  --- 19 cbr 1020 [13a 6 2 800] ------- [0:0 6:0 30 6] [10] 3 0
r 3.029554282 _6_ AGT  --- 19 cbr 1000 [13a 6 2 800] ------- [0:0 6:0 30 6] [10] 3 0
r 3.031817648 _3_ RTR  --- 20 cbr 44 [13a 3 0 800] ------- [0:0 6:0 32 3] [11] 1 0
SFf 3.031817648 _3_ 20 [0 -> 6] 1 to 2
f 3.031817648 _3_ RTR  --- 20 cbr 44 [13a 3 0 800] ------- [0:0 6:0 31 2] [11] 1 0
r 3.033735487 _2_ RTR  --- 20 cbr 44 [13a 2 3 800] ------- [0:0 6:0 31 2] [11] 2 0
SFf 3.033735487 _2_ 20 [0 -> 6] 1 to 6
f 3.033735487 _2_ RTR  --- 20 cbr 44 [13a 2 3 800] ------- [0:0 6:0 30 6] [11] 2 0
r 3.036193506 _6_ RTR  --- 20 cbr 44 [13a 6 2 800] ------- [0:0 6:0 30 6] [11] 3 0
r 3.036193506 _6_ AGT  --- 20 cbr 24 [13a 6 2 800] ------- [0:0 6:0 30 6] [11] 3 0
s 3.200000000 _0_ AGT  --- 21 cbr 1000 [0 0 0 0] ------- [0:0 6:0 32 0] [12] 0 0
r 3.200000000 _0_ RTR  --- 21 cbr 1000 [0 0 0 0] ------- [0:0 6:0 32 0] [12] 0 0
SFs 3.200000000 _0_ 21 [0 -> 6] 1(0) to 3 
s 3.200000000 _0_ AGT  --- 22 cbr 24 [0 0 0 0] ------- [0:0 6:0 32 0] [13] 0 0
r 3.200000000 _0_ RTR  --- 22 cbr 24 [0 0 0 0] ------- [0:0 6:0 32 0] [13] 0 0
SFs 3.200000000 _0_ 22 [0 -> 6] 1(0) to 3 
s 3.200000000 _0_ RTR  --- 21 cbr 1020 [0 0 0 0] ------- [0:0 6:0 32 3] [12] 0 0
s 3.200000000 _0_ RTR  --- 22 cbr 44 [0 0 0 0] ------- [0:0 6:0 32 3] [13] 0 0
r 3.209722424 _3_ RTR  --- 21 cbr 1020 [13a 3 0 800] ------- [0:0 6:0 32 3] [12] 1 0
SFf 3.209722424 _3_ 21 [0 -> 6] 1 to 2
f 3.209722424 _3_ RTR  --- 21 cbr 1020 [13a 3 0 800] ------- [0:0 6:0 31 2] [12] 1 0
r 3.219548262 _2_ RTR  --- 21 cbr 1020 [13a 2 3 800] ------- [0:0 6:0 31 2] [12] 2 0
SFf 3.219548262 _2_ 21 [0 -> 6] 1 to 6
f 3.219548262 _2_ RTR  --- 21 cbr 1020 [13a 2 3 800] ------- [0:0 6:0 30 6] [12] 2 0
r 3.229694282 _6_ RTR  --- 21 cbr 1020 [13a 6 2 800] ------- [0:0 6:0 30 6] [12] 3 0
r 3.229694282 _6_ AGT  --- 21 cbr 1000 [13a 6 2 800] ------- [0:0 6:0 30 6] [12] 3 0
r 3.231957648 _3_ RTR  --- 22 cbr 44 [13a 3 0 800] ------- [0:0 6:0 32 3] [13] 1 0
SFf 3.231957648 _3_ 22 [0 -> 6] 1 to 2
f 3.231957648 _3_ RTR  --- 22 cbr 44 [13a 3 0 800] ------- [0:0 6:0 31 2] [13] 1 0
r 3.233935487 _2_ RTR  --- 22 cbr 44 [13a 2 3 800] ------- [0:0 6:0 31 2] [13] 2 0
SFf 3.233935487 _2_ 22 [0 -> 6] 1 to 6
f 3.233935487 _2_ RTR  --- 22 cbr 44 [13a 2 3 800] ------- [0:0 6:0 30 6] [13] 2 0
r 3.236073506 _6_ RTR  --- 22 cbr 44 [13a 6 2 800] ------- [0:0 6:0 30 6] [13] 3 0
r 3.236073506 _6_ AGT  --- 22 cbr 24 [13a 6 2 800] ------- [0:0 6:0 30 6] [13] 3 0
s 3.400000000 _0_ AGT  --- 23 cbr 1000 [0 0 0 0] ------- [0:0 6:0 32 0] [14] 0 0
r 3.400000000 _0_ RTR  --- 23 cbr 1000 [0 0 0 0] ------- [0:0 6:0 32 0] [14] 0 0
SFs 3.400000000 _0_ 23 [0 -> 6] 1(0) to 3 
s 3.400000000 _0_ AGT  --- 24 cbr 24 [0 0 0 0] ------- [0:0 6:0 32 0] [15] 0 0
r 3.400000000 _0_ RTR  --- 24 cbr 24 [0 0 0 0] ------- [0:0 6:0 32 0] [15] 0 0
SFs 3.400000000 _0_ 24 [0 -> 6] 1(0) to 3 
s 3.400000000 _0_ RTR  --- 23 cbr 1020 [0 0 0 0] ------- [0:0 6:0 32 3] [14] 0 0
s 3.400000000 _0_ RTR  --- 24 cbr 44 [0 0 0 0] ------- [0:0 6:0 32 3] [15] 0 0
r 3.409982424 _3_ RTR  --- 23 cbr 1020 [13a 3 0 800] ------- [0:0 6:0 32 3] [14] 1 0
SFf 3.409982424 _3_ 23 [0 -> 6] 1 to 2
f 3.409982424 _3_ RTR  --- 23 cbr 1020 [13a 3 0 800] ------- [0:0 6:0 31 2] [14] 1 0
r 3.419688262 _2_ RTR  --- 23 cbr 1020 [13a 2 3 800] ------- [0:0 6:0 31 2] [14] 2 0
SFf 3.419688262 _2_ 23 [0 -> 6] 1 to 6
f 3.419688262 _2_ RTR  --- 23 cbr 1020 [13a 2 3 800] ------- [0:0 6:0 30 6] [14] 2 0
r 3.429434282 _6_ RTR  --- 23 cbr 1020 [13a 6 2 800] ------- [0:0 6:0 30 6] [14] 3 0
r 3.429434282 _6_ AGT  --- 23 cbr 1000 [13a 6 2 800] ------- [0:0 6:0 30 6] [14] 3 0
r 3.431737648 _3_ RTR  --- 24 cbr 44 [13a 3 0 800] ------- [0:0 6:0 32 3] [15] 1 0
SFf 3.431737648 _3_ 24 [0 -> 6] 1 to 2
f 3.431737648 _3_ RTR  --- 24 cbr 44 [13a 3 0 800] ------- [0:0 6:0 31 2] [15] 1 0
r 3.433775487 _2_ RTR  --- 24 cbr 44 [13a 2 3 800] ------- [0:0 6:0 31 2] [15] 2 0
SFf 3.433775487 _2_ 24 [0 -> 6] 1 to 6
f 3.433775487 _2_ RTR  --- 24 cbr 44 [13a 2 3 800] ------- [0:0 6:0 30 6] [15] 2 0
r 3.435773506 _6_ RTR  --- 24 cbr 44 [13a 6 2 800] ------- [0:0 6:0 30 6] [15] 3 0
r 3.435773506 _6_ AGT  --- 24 cbr 24 [13a 6 2 800] ------- [0:0 6:0 30 6] [15] 3 0
s 3.600000000 _0_ AGT  --- 25 cbr 1000 [0 0 0 0] ------- [0:0 6:0 32 0] [16] 0 0
r 3.600000000 _0_ RTR  --- 25 cbr 1000 [0 0 0 0] ------- [0:0 6:0 32 0] [16] 0 0
SFs 3.600000000 _0_ 25 [0 -> 6] 1(0) to 3 
s 3.600000000 _0_ AGT  --- 26 cbr 24 [0 0 0 0] ------- [0:0 6:0 32 0] [17] 0 0
r 3.600000000 _0_ RTR  --- 26 cbr 24 [0 0 0 0] ------- [0:0 6:0 32 0] [17] 0 0
SFs 3.600000000 _0_ 26 [0 -> 6] 1(0) to 3 
s 3.600000000 _0_ RTR  --- 25 cbr 1020 [0 0 0 0] ------- [0:0 6:0 32 3] [16] 0 0
s 3.600000000 _0_ RTR  --- 26 cbr 44 [0 0 0 0] ------- [0:0 6:0 32 3] [17] 0 0
r 3.609602424 _3_ RTR  --- 25 cbr 1020 [13a 3 0 800] ------- [0:0 6:0 32 3] [16] 1 0
SFf 3.609602424 _3_ 25 [0 -> 6] 1 to 2
f 3.609602424 _3_ RTR  --- 25 cbr 1020 [13a 3 0 800] ------- [0:0 6:0 31 2] [16] 1 0
r 3.619508262 _2_ RTR  --- 25 cbr 1020 [13a 2 3 800] ------- [0:0 6:0 31 2] [16] 2 0
SFf 3.619508262 _2_ 25 [0 -> 6] 1 to 6
f 3.619508262 _2_ RTR  --- 25 cbr 1020 [13a 2 3 800] ------- [0:0 6:0 30 6] [16] 2 0
r 3.629634282 _6_ RTR  --- 25 cbr 1020 [13a 6 2 800] ------- [0:0 6:0 30 6] [16] 3 0
r 3.629634282 _6_ AGT  --- 25 cbr 1000 [13a 6 2 800] ------- [0:0 6:0 30 6] [16] 3 0
r 3.631977648 _3_ RTR  --- 26 cbr 44 [13a 3 0 800] ------- [0:0 6:0 32 3] [17] 1 0
SFf 3.631977648 _3_ 26 [0 -> 6] 1 to 2
f 3.631977648 _3_ RTR  --- 26 cbr 44 [13a 3 0 800] ------- [0:0 6:0 31 2] [17] 1 0
r 3.634275487 _2_ RTR  --- 26 cbr 44 [13a 2 3 800] ------- [0:0 6:0 31 2] [17] 2 0
SFf 3.634275487 _2_ 26 [0 -> 6] 1 to 6
f 3.634275487 _2_ RTR  --- 26 cbr 44 [13a 2 3 800] ------- [0:0 6:0 30 6] [17] 2 0
r 3.636493506 _6_ RTR  --- 26 cbr 44 [13a 6 2 800] ------- [0:0 6:0 30 6] [17] 3 0
r 3.636493506 _6_ AGT  --- 26 cbr 24 [13a 6 2 800] ------- [0:0 6:0 30 6] [17] 3 0
s 3.800000000 _0_ AGT  --- 27 cbr 1000 [0 0 0 0] ------- [0:0 6:0 32 0] [18] 0 0
r 3.800000000 _0_ RTR  --- 27 cbr 1000 [0 0 0 0] ------- [0:0 6:0 32 0] [18] 0 0
SFs 3.800000000 _0_ 27 [0 -> 6] 1(0) to 3 
s 3.800000000 _0_ AGT  --- 28 cbr 24 [0 0 0 0] ------- [0:0 6:0 32 0] [19] 0 0
r 3.800000000 _0_ RTR  --- 28 cbr 24 [0 0 0 0] ------- [0:0 6:0 32 0] [19] 0 0
SFs 3.800000000 _0_ 28 [0 -> 6] 1(0) to 3 
s 3.800000000 _0_ RTR  --- 27 cbr 1020 [0 0 0 0] ------- [0:0 6:0 32 3] [18] 0 0
s 3.800000000 _0_ RTR  --- 28 cbr 44 [0 0 0 0] ------- [0:0 6:0 32 3] [19] 0 0
r 3.809702424 _3_ RTR  --- 27 cbr 1020 [13a 3 0 800] ------- [0:0 6:0 32 3] [18] 1 0
SFf 3.809702424 _3_ 27 [0 -> 6] 1 to 2
f 3.809702424 _3_ RTR  --- 27 cbr 1020 [13a 3 0 800] ------- [0:0 6:0 31 2] [18] 1 0
r 3.819668262 _2_ RTR  --- 27 cbr 1020 [13a 2 3 800] ------- [0:0 6:0 31 2] [18] 2 0
SFf 3.819668262 _2_ 27 [0 -> 6] 1 to 6
f 3.819668262 _2_ RTR  --- 27 cbr 1020 [13a 2 3 800] ------- [0:0 6:0 30 6] [18] 2 0
r 3.829554282 _6_ RTR  --- 27 cbr 1020 [13a 6 2 800] ------- [0:0 6:0 30 6] [18] 3 0
r 3.829554282 _6_ AGT  --- 27 cbr 1000 [13a 6 2 800] ------- [0:0 6:0 30 6] [18] 3 0
r 3.831897648 _3_ RTR  --- 28 cbr 44 [13a 3 0 800] ------- [0:0 6:0 32 3] [19] 1 0
SFf 3.831897648 _3_ 28 [0 -> 6] 1 to 2
f 3.831897648 _3_ RTR  --- 28 cbr 44 [13a 3 0 800] ------- [0:0 6:0 31 2] [19] 1 0
r 3.833935487 _2_ RTR  --- 28 cbr 44 [13a 2 3 800] ------- [0:0 6:0 31 2] [19] 2 0
SFf 3.833935487 _2_ 28 [0 -> 6] 1 to 6
f 3.833935487 _2_ RTR  --- 28 cbr 44 [13a 2 3 800] ------- [0:0 6:0 30 6] [19] 2 0
r 3.835973506 _6_ RTR  --- 28 cbr 44 [13a 6 2 800] ------- [0:0 6:0 30 6] [19] 3 0
r 3.835973506 _6_ AGT  --- 28 cbr 24 [13a 6 2 800] ------- [0:0 6:0 30 6] [19] 3 0
s 4.000000000 _0_ AGT  --- 29 cbr 1000 [0 0 0 0] ------- [0:0 6:0 32 0] [20] 0 0
r 4.000000000 _0_ RTR  --- 29 cbr 1000 [0 0 0 0] ------- [0:0 6:0 32 0] [20] 0 0
SFs 4.000000000 _0_ 29 [0 -> 6] 1(0) to 3 
s 4.000000000 _0_ AGT  --- 30 cbr 24 [0 0 0 0] ------- [0:0 6:0 32 0] [21] 0 0
r 4.000000000 _0_ RTR  --- 30 cbr 24 [0 0 0 0] ------- [0:0 6:0 32 0] [21] 0 0
SFs 4.000000000 _0_ 30 [0 -> 6] 1(0) to 3 
s 4.000000000 _0_ RTR  --- 29 cbr 1020 [0 0 0 0] ------- [0:0 6:0 32 3] [20] 0 0
s 4.000000000 _0_ RTR  --- 30 cbr 44 [0 0 0 0] ------- [0:0 6:0 32 3] [21] 0 0
r 4.009682424 _3_ RTR  --- 29 cbr 1020 [13a 3 0 800] ------- [0:0 6:0 32 3] [20] 1 0
SFf 4.009682424 _3_ 29 [0 -> 6] 1 to 2
f 4.009682424 _3_ RTR  --- 29 cbr 1020 [13a 3 0 800] ------- [0:0 6:0 31 2] [20] 1 0
r 4.011681655 _3_ RTR  --- 30 cbr 44 [13a 3 0 800] ------- [0:0 6:0 32 3] [21] 1 0
SFf 4.011681655 _3_ 30 [0 -> 6] 1 to 2
f 4.011681655 _3_ RTR  --- 30 cbr 44 [13a 3 0 800] ------- [0:0 6:0 31 2] [21] 1 0
r 4.021727494 _2_ RTR  --- 29 cbr 1020 [13a 2 3 800] ------- [0:0 6:0 31 2] [20] 2 0
SFf 4.021727494 _2_ 29 [0 -> 6] 1 to 6
f 4.021727494 _2_ RTR  --- 29 cbr 1020 [13a 2 3 800] ------- [0:0 6:0 30 6] [20] 2 0
r 4.023725946 _2_ RTR  --- 30 cbr 44 [13a 2 3 800] ------- [0:0 6:0 31 2] [21] 2 0
SFf 4.023725946 _2_ 30 [0 -> 6] 1 to 6
f 4.023725946 _2_ RTR  --- 30 cbr 44 [13a 2 3 800] ------- [0:0 6:0 30 6] [21] 2 0
r 4.033671965 _6_ RTR  --- 29 cbr 1020 [13a 6 2 800] ------- [0:0 6:0 30 6] [20] 3 0
r 4.033671965 _6_ AGT  --- 29 cbr 1000 [13a 6 2 800] ------- [0:0 6:0 30 6] [20] 3 0
r 4.035730657 _6_ RTR  --- 30 cbr 44 [13a 6 2 800] ------- [0:0 6:0 30 6] [21] 3 0
r 4.035730657 _6_ AGT  --- 30 cbr 24 [13a 6 2 800] ------- [0:0 6:0 30 6] [21] 3 0
s 4.200000000 _0_ AGT  --- 31 cbr 1000 [0 0 0 0] ------- [0:0 6:0 32 0] [22] 0 0
r 4.200000000 _0_ RTR  --- 31 cbr 1000 [0 0 0 0] ------- [0:0 6:0 32 0] [22] 0 0
SFs 4.200000000 _0_ 31 [0 -> 6] 1(0) to 3 
s 4.200000000 _0_ AGT  --- 32 cbr 24 [0 0 0 0] ------- [0:0 6:0 32 0] [23] 0 0
r 4.200000000 _0_ RTR  --- 32 cbr 24 [0 0 0 0] ------- [0:0 6:0 32 0] [23] 0 0
SFs 4.200000000 _0_ 32 [0 -> 6] 1(0) to 3 
s 4.200000000 _0_ RTR  --- 31 cbr 1020 [0 0 0 0] ------- [0:0 6:0 32 3] [22] 0 0
s 4.200000000 _0_ RTR  --- 32 cbr 44 [0 0 0 0] ------- [0:0 6:0 32 3] [23] 0 0
r 4.209542424 _3_ RTR  --- 31 cbr 1020 [13a 3 0 800] ------- [0:0 6:0 32 3] [22] 1 0
SFf 4.209542424 _3_ 31 [0 -> 6] 1 to 2
f 4.209542424 _3_ RTR  --- 31 cbr 1020 [13a 3 0 800] ------- [0:0 6:0 31 2] [22] 1 0
r 4.219728262 _2_ RTR  --- 31 cbr 1020 [13a 2 3 800] ------- [0:0 6:0 31 2] [22] 2 0
SFf 4.219728262 _2_ 31 [0 -> 6] 1 to 6
f 4.219728262 _2_ RTR  --- 31 cbr 1020 [13a 2 3 800] ------- [0:0 6:0 30 6] [22] 2 0
r 4.222011732 _3_ RTR  --- 32 cbr 44 [13a 3 0 800] ------- [0:0 6:0 32 3] [23] 1 0
SFf 4.222011732 _3_ 32 [0 -> 6] 1 to 2
f 4.222011732 _3_ RTR  --- 32 cbr 44 [13a 3 0 800] ------- [0:0 6:0 31 2] [23] 1 0
r 4.223889570 _2_ RTR  --- 32 cbr 44 [13a 2 3 800] ------- [0:0 6:0 31 2] [23] 2 0
SFf 4.223889570 _2_ 32 [0 -> 6] 1 to 6
f 4.223889570 _2_ RTR  --- 32 cbr 44 [13a 2 3 800] ------- [0:0 6:0 30 6] [23] 2 0
r 4.233635590 _6_ RTR  --- 31 cbr 1020 [13a 6 2 800] ------- [0:0 6:0 30 6] [22] 3 0
r 4.233635590 _6_ AGT  --- 31 cbr 1000 [13a 6 2 800] ------- [0:0 6:0 30 6] [22] 3 0
r 4.236054282 _6_ RTR  --- 32 cbr 44 [13a 6 2 800] ------- [0:0 6:0 30 6] [23] 3 0
r 4.236054282 _6_ AGT  --- 32 cbr 24 [13a 6 2 800] ------- [0:0 6:0 30 6] [23] 3 0
s 4.400000000 _0_ AGT  --- 33 cbr 1000 [0 0 0 0] ------- [0:0 6:0 32 0] [24] 0 0
r 4.400000000 _0_ RTR  --- 33 cbr 1000 [0 0 0 0] ------- [0:0 6:0 32 0] [24] 0 0
SFs 4.400000000 _0_ 33 [0 -> 6] 1(0) to 3 
s 4.400000000 _0_ AGT  --- 34 cbr 24 [0 0 0 0] ------- [0:0 6:0 32 0] [25] 0 0
r 4.400000000 _0_ RTR  --- 34 cbr 24 [0 0 0 0] ------- [0:0 6:0 32 0] [25] 0 0
SFs 4.400000000 _0_ 34 [0 -> 6] 1(0) to 3 
s 4.400000000 _0_ RTR  --- 33 cbr 1020 [0 0 0 0] ------- [0:0 6:0 32 3] [24] 0 0
s 4.400000000 _0_ RTR  --- 34 cbr 44 [0 0 0 0] ------- [0:0 6:0 32 3] [25] 0 0
r 4.409662424 _3_ RTR  --- 33 cbr 1020 [13a 3 0 800] ------- [0:0 6:0 32 3] [24] 1 0
SFf 4.409662424 _3_ 33 [0 -> 6] 1 to 2
f 4.409662424 _3_ RTR  --- 33 cbr 1020 [13a 3 0 800] ------- [0:0 6:0 31 2] [24] 1 0
r 4.411601655 _3_ RTR  --- 34 cbr 44 [13a 3 0 800] ------- [0:0 6:0 32 3] [25] 1 0
SFf 4.411601655 _3_ 34 [0 -> 6] 1 to 2
f 4.411601655 _3_ RTR  --- 34 cbr 44 [13a 3 0 800] ------- [0:0 6:0 31 2] [25] 1 0
r 4.421427494 _2_ RTR  --- 33 cbr 1020 [13a 2 3 800] ------- [0:0 6:0 31 2] [24] 2 0
SFf 4.421427494 _2_ 33 [0 -> 6] 1 to 6
f 4.421427494 _2_ RTR  --- 33 cbr 1020 [13a 2 3 800] ------- [0:0 6:0 30 6] [24] 2 0
r 4.431253513 _6_ RTR  --- 33 cbr 1020 [13a 6 2 800] ------- [0:0 6:0 30 6] [24] 3 0
r 4.431253513 _6_ AGT  --- 33 cbr 1000 [13a 6 2 800] ------- [0:0 6:0 30 6] [24] 3 0
r 4.433756422 _2_ RTR  --- 34 cbr 44 [13a 2 3 800] ------- [0:0 6:0 31 2] [25] 2 0
SFf 4.433756422 _2_ 34 [0 -> 6] 1 to 6
f 4.433756422 _2_ RTR  --- 34 cbr 44 [13a 2 3 800] ------- [0:0 6:0 30 6] [25] 2 0
r 4.435714442 _6_ RTR  --- 34 cbr 44 [13a 6 2 800] ------- [0:0 6:0 30 6] [25] 3 0
r 4.435714442 _6_ AGT  --- 34 cbr 24 [13a 6 2 800] ------- [0:0 6:0 30 6] [25] 3 0
s 4.600000000 _0_ AGT  --- 35 cbr 1000 [0 0 0 0] ------- [0:0 6:0 32 0] [26] 0 0
r 4.600000000 _0_ RTR  --- 35 cbr 1000 [0 0 0 0] ------- [0:0 6:0 32 0] [26] 0 0
SFs 4.600000000 _0_ 35 [0 -> 6] 1(0) to 3 
s 4.600000000 _0_ AGT  --- 36 cbr 24 [0 0 0 0] ------- [0:0 6:0 32 0] [27] 0 0
r 4.600000000 _0_ RTR  --- 36 cbr 24 [0 0 0 0] ------- [0:0 6:0 32 0] [27] 0 0
SFs 4.600000000 _0_ 36 [0 -> 6] 1(0) to 3 
s 4.600000000 _0_ RTR  --- 35 cbr 1020 [0 0 0 0] ------- [0:0 6:0 32 3] [26] 0 0
s 4.600000000 _0_ RTR  --- 36 cbr 44 [0 0 0 0] ------- [0:0 6:0 32 3] [27] 0 0
r 4.609622424 _3_ RTR  --- 35 cbr 1020 [13a 3 0 800] ------- [0:0 6:0 32 3] [26] 1 0
SFf 4.609622424 _3_ 35 [0 -> 6] 1 to 2
f 4.609622424 _3_ RTR  --- 35 cbr 1020 [13a 3 0 800] ------- [0:0 6:0 31 2] [26] 1 0
r 4.619288262 _2_ RTR  --- 35 cbr 1020 [13a 2 3 800] ------- [0:0 6:0 31 2] [26] 2 0
SFf 4.619288262 _2_ 35 [0 -> 6] 1 to 6
f 4.619288262 _2_ RTR  --- 35 cbr 1020 [13a 2 3 800] ------- [0:0 6:0 30 6] [26] 2 0
r 4.629534282 _6_ RTR  --- 35 cbr 1020 [13a 6 2 800] ------- [0:0 6:0 30 6] [26] 3 0
r 4.629534282 _6_ AGT  --- 35 cbr 1000 [13a 6 2 800] ------- [0:0 6:0 30 6] [26] 3 0
r 4.631817648 _3_ RTR  --- 36 cbr 44 [13a 3 0 800] ------- [0:0 6:0 32 3] [27] 1 0
SFf 4.631817648 _3_ 36 [0 -> 6] 1 to 2
f 4.631817648 _3_ RTR  --- 36 cbr 44 [13a 3 0 800] ------- [0:0 6:0 31 2] [27] 1 0
r 4.633715487 _2_ RTR  --- 36 cbr 44 [13a 2 3 800] ------- [0:0 6:0 31 2] [27] 2 0
SFf 4.633715487 _2_ 36 [0 -> 6] 1 to 6
f 4.633715487 _2_ RTR  --- 36 cbr 44 [13a 2 3 800] ------- [0:0 6:0 30 6] [27] 2 0
r 4.635733506 _6_ RTR  --- 36 cbr 44 [13a 6 2 800] ------- [0:0 6:0 30 6] [27] 3 0
r 4.635733506 _6_ AGT  --- 36 cbr 24 [13a 6 2 800] ------- [0:0 6:0 30 6] [27] 3 0
s 4.800000000 _0_ AGT  --- 37 cbr 1000 [0 0 0 0] ------- [0:0 6:0 32 0] [28] 0 0
r 4.800000000 _0_ RTR  --- 37 cbr 1000 [0 0 0 0] ------- [0:0 6:0 32 0] [28] 0 0
SFs 4.800000000 _0_ 37 [0 -> 6] 1(0) to 3 
s 4.800000000 _0_ AGT  --- 38 cbr 24 [0 0 0 0] ------- [0:0 6:0 32 0] [29] 0 0
r 4.800000000 _0_ RTR  --- 38 cbr 24 [0 0 0 0] ------- [0:0 6:0 32 0] [29] 0 0
SFs 4.800000000 _0_ 38 [0 -> 6] 1(0) to 3 
s 4.800000000 _0_ RTR  --- 37 cbr 1020 [0 0 0 0] ------- [0:0 6:0 32 3] [28] 0 0
s 4.800000000 _0_ RTR  --- 38 cbr 44 [0 0 0 0] ------- [0:0 6:0 32 3] [29] 0 0
r 4.809922424 _3_ RTR  --- 37 cbr 1020 [13a 3 0 800] ------- [0:0 6:0 32 3] [28] 1 0
SFf 4.809922424 _3_ 37 [0 -> 6] 1 to 2
f 4.809922424 _3_ RTR  --- 37 cbr 1020 [13a 3 0 800] ------- [0:0 6:0 31 2] [28] 1 0
r 4.812221655 _3_ RTR  --- 38 cbr 44 [13a 3 0 800] ------- [0:0 6:0 32 3] [29] 1 0
SFf 4.812221655 _3_ 38 [0 -> 6] 1 to 2
f 4.812221655 _3_ RTR  --- 38 cbr 44 [13a 3 0 800] ------- [0:0 6:0 31 2] [29] 1 0
r 4.821907494 _2_ RTR  --- 37 cbr 1020 [13a 2 3 800] ------- [0:0 6:0 31 2] [28] 2 0
SFf 4.821907494 _2_ 37 [0 -> 6] 1 to 6
f 4.821907494 _2_ RTR  --- 37 cbr 1020 [13a 2 3 800] ------- [0:0 6:0 30 6] [28] 2 0
r 4.833320739 _6_ RTR  --- 37 cbr 1020 [13a 6 2 800] ------- [0:0 6:0 30 6] [28] 3 0
r 4.833320739 _6_ AGT  --- 37 cbr 1000 [13a 6 2 800] ------- [0:0 6:0 30 6] [28] 3 0
r 4.836043648 _2_ RTR  --- 38 cbr 44 [13a 2 3 800] ------- [0:0 6:0 31 2] [29] 2 0
SFf 4.836043648 _2_ 38 [0 -> 6] 1 to 6
f 4.836043648 _2_ RTR  --- 38 cbr 44 [13a 2 3 800] ------- [0:0 6:0 30 6] [29] 2 0
r 4.838221667 _6_ RTR  --- 38 cbr 44 [13a 6 2 800] ------- [0:0 6:0 30 6] [29] 3 0